/*--------------------------------*- C++ -*----------------------------------*\
| =========                 |                                                 |
| \\      /  F ield         | OpenFOAM: The Open Source CFD Toolbox           |
|  \\    /   O peration     | Version:  v1912                                 |
|   \\  /    A nd           | Website:  www.openfoam.com                      |
|    \\/     M anipulation  |                                                 |
\*---------------------------------------------------------------------------*/
FoamFile
{
    version     2.0;
    format      ascii;
    class       volVectorField;
    location    "0.002/wallFilmRegion";
    object      Uf;
}
// * * * * * * * * * * * * * * * * * * * * * * * * * * * * * * * * * * * * * //

dimensions      [0 1 -1 0 0 0 0];


internalField   nonuniform List<vector> 
120
(
(0.01771213848782713 0 -0.001293272490232995)
(0.01768306631641416 2.336564175570763e-22 -0.001472143134592209)
(0.01762109268593163 2.879579947527494e-22 -0.001653812122809429)
(0.01751996056786595 0 -0.001837786882645833)
(0.01737725120649644 0 -0.002021903390997054)
(0.01719528784110468 -4.95476705088582e-22 -0.002206918087745552)
(0.01698219556590065 0 -0.002390816449894043)
(0.01674959231695487 0 -0.002575791946534375)
(0.01650598976434921 3.73219114992908e-22 -0.002764470844090339)
(0.01625861247058608 4.187605626393601e-22 -0.002956965363216193)
(0.01601176543379941 -4.664246116202338e-22 -0.003155183988116616)
(0.01576310398008337 0 -0.003360780581957633)
(0.01550637992824104 0 -0.003573306428136034)
(0.01523340896649581 0 -0.003791922448253666)
(0.0149319038256083 0 -0.004017191108021283)
(0.01459137024604147 -7.312748327540416e-22 -0.004244351694344212)
(0.01419868563302232 7.890064620131261e-22 -0.004474023727853203)
(0.01373908147036988 0 -0.004702013075712357)
(0.01320040346470914 0 -0.004920425861631519)
(0.01256147661423194 9.393504968705498e-22 -0.005126415821835152)
(0.01180085409037934 0 -0.005303199849100871)
(0.01088516075392256 0 -0.005438329696865721)
(0.009785971670107729 0 -0.005493686088870187)
(0.008448887271852371 -8.371941215557354e-22 -0.005420906286934596)
(0.006820515964715372 0 -0.00511890142951324)
(0.004865728507212078 0 -0.004429593125743228)
(0.002753668175639479 7.013784431586171e-23 -0.003223009396075244)
(0.001012730489412003 -2.637296320259631e-22 -0.001696325305082968)
(0.0001601170024586713 -2.859057691343067e-22 -0.0004896179298772372)
(-5.080283634974198e-05 6.32388021492893e-23 0.0009336952758971834)
(0.01396151487745704 0 0.003169055479132713)
(0.01687044680303747 0 0.001123367660661442)
(0.01608840934378732 6.582003040312391e-23 0.001010725394321544)
(0.01615990483584153 0 0.0009560797142679162)
(0.01629905053776945 3.285212676031858e-23 0.0009073750535640911)
(0.01645145955254862 0 0.000859309967755112)
(0.0166002061621281 0 0.000811974859346773)
(0.01673800767664802 0 0.0007640199606856746)
(0.0168605555876949 0 0.0007152681653993232)
(0.01696691574473532 0 0.0006651714119695187)
(0.01705925473768592 -2.957385983152637e-23 0.0006142994200350936)
(0.0171380643036984 0 0.0005612494265783259)
(0.01720425667134111 0 0.0005073550073688111)
(0.01726197780060736 0 0.0004511651662964344)
(0.01731399450144845 0 0.0003926886412047343)
(0.01735981360028681 0 0.0003311206487485076)
(0.01739842395879409 0 0.0002678534122301215)
(0.01743087405523988 0 0.0002000298031213073)
(0.01745693112775669 0 0.0001288901928086516)
(0.01747764174003632 0 5.260164415303566e-05)
(0.01749454507094962 0 -2.771566576432131e-05)
(0.01751120685688199 3.813718793643273e-24 -0.000114222085500844)
(0.01752920101782177 0 -0.0002071866505105811)
(0.01755028057644983 0 -0.0003070073816618374)
(0.01757529712406369 0 -0.0004154099800523866)
(0.01760452266711646 0 -0.0005318478978836243)
(0.01763625370011439 4.631741533981682e-23 -0.0006602516523317374)
(0.01766773307319289 0 -0.0007990408798184436)
(0.01769590303027347 0 -0.0009516451456172232)
(0.01771248957315994 -1.467212822081325e-22 -0.001118099371125353)
(0.02042742486292832 1.926710824148891e-22 -0.001285092603002737)
(0.02057567008163811 0 -0.001083680359300707)
(0.02064398653150115 1.415265856514824e-22 -0.0008685664409740189)
(0.02062956115058994 0 -0.0006398779988912747)
(0.02054359149247741 0 -0.0004030876367988998)
(0.02040814136393822 5.86199599424255e-23 -0.0001586646600469977)
(0.02024896299762773 -3.417355484662826e-23 9.126374005755187e-05)
(0.02009130073800691 0 0.0003492267867811734)
(0.01995610709462293 -1.830973545963685e-22 0.0006129819734709391)
(0.01985544007085629 2.106761276175452e-22 0.0008891148413804268)
(0.01979004050470072 -4.826352221565596e-22 0.001179864212220846)
(0.01976019870723861 0 0.001486159712092736)
(0.0197603630257291 6.271022642156573e-22 0.001814681561003413)
(0.01977977503269619 0 0.002169780887411992)
(0.01981186100833436 0 0.002551133904948377)
(0.01984574486368448 0 0.002970981975065304)
(0.019871052437856 1.021799196290291e-21 0.003428481919197801)
(0.01987730391973877 0 0.003935287345771153)
(0.0198503073869161 -1.284431457179862e-21 0.004497359468616249)
(0.01977461580697405 0 0.005122641694104306)
(0.01961799956686238 0 0.005827798238846511)
(0.01933839077429879 -1.739391557898127e-21 0.006616039606231179)
(0.01886806152930429 0 0.007495989710944577)
(0.01809770444452336 0 0.00845274772522839)
(0.01685716190977862 0 0.009432345235770294)
(0.01489285439106666 1.846171822225659e-21 0.01027407137754208)
(0.01189139905637488 0 0.0105797603797321)
(0.007786516449571491 0 0.009647811440109703)
(0.003518671243097452 0 0.007025967626292444)
(0.0007443666410213256 0 0.003470276812804466)
(0.006990545279760842 2.913015159815455e-22 -0.001488930407080928)
(0.008943994304104946 -2.815119952114992e-22 -0.001868026537270632)
(0.009942096384935605 0 -0.002036875951517637)
(0.01073021912926094 0 -0.002157877447256613)
(0.01139818553049904 0 -0.00225010083018587)
(0.01198982522565378 0 -0.002323884459020503)
(0.01252799745493076 2.724457260952385e-22 -0.002385084497039552)
(0.01302499598414423 -2.715983940449726e-22 -0.002434836570939691)
(0.01348878624013867 0 -0.002476423563005241)
(0.01392666936008213 2.720377165176588e-22 -0.002510155934494991)
(0.01434523852428277 0 -0.002537772628834871)
(0.01475189804343004 -2.746319345644239e-22 -0.00255986749438511)
(0.01515351091608713 0 -0.002577752455773679)
(0.01555560206318028 2.795772075828231e-22 -0.002591468251739885)
(0.01595926133548174 2.834433867272707e-22 -0.002601261429086601)
(0.01636168752482503 0 -0.002606328096050726)
(0.01675319212414515 0 -0.002602916275881199)
(0.0171218479115819 0 -0.0025903519958026)
(0.0174584985691546 3.05849628505937e-22 -0.002566384663737159)
(0.01775703546894273 0 -0.002528989872923078)
(0.01801983586174637 0 -0.002479330416563186)
(0.01825591752539951 3.296675141342312e-22 -0.002417553759919421)
(0.01847608849322364 0 -0.002344858895138999)
(0.01869091208227228 0 -0.002259819361057311)
(0.01891164710371542 -1.864096512873258e-22 -0.002165677653568586)
(0.01914762551125187 1.984374359321249e-22 -0.002060021302247456)
(0.01940076859538765 0 -0.001941008710759014)
(0.01966866030534787 0 -0.001806274612869683)
(0.01994216055373587 0 -0.001653695552262523)
(0.02020179734230704 0 -0.001477478672541232)
)
;

boundaryField
{
    back
    {
        type            empty;
    }
    front
    {
        type            empty;
    }
    wallFilmFaces_top
    {
        type            slip;
    }
    region0_to_wallFilmRegion_wallFilmFaces
    {
        type            noSlip;
    }
}


// ************************************************************************* //
