/*--------------------------------*- C++ -*----------------------------------*\
| =========                 |                                                 |
| \\      /  F ield         | OpenFOAM: The Open Source CFD Toolbox           |
|  \\    /   O peration     | Version:  v1912                                 |
|   \\  /    A nd           | Website:  www.openfoam.com                      |
|    \\/     M anipulation  |                                                 |
\*---------------------------------------------------------------------------*/
FoamFile
{
    version     2.0;
    format      ascii;
    class       scalarField;
    location    "0.003/lagrangian/iceFoamCloud";
    object      age;
}
// * * * * * * * * * * * * * * * * * * * * * * * * * * * * * * * * * * * * * //


396
(
0.003017857142857143
0.003004464285714286
0.003002186588921283
0.002987153790087464
0.002984473523628722
0.002972043302370783
0.00296458516961602
0.002965122692697444
0.002951012711810055
0.002942546723277622
0.002942899472799806
0.002930398911607384
0.002921469939327083
0.002916112555958902
0.002917388123427516
0.00290354821639305
0.002893662568511288
0.00288773117978223
0.002889708309358583
0.002876896509703819
0.002866931776639003
0.002859814110164134
0.002855543510279213
0.002857509341972272
0.002843477370921816
0.002832563615660351
0.002824768076187876
0.002820090752504391
0.002822862499872382
0.002809629331014786
0.00279880219285857
0.002790381085403735
0.002784366008650282
0.00278075696259821
0.002779553947247519
0.002766320778389922
0.002755493640233708
0.002747072532778872
0.002741057456025419
0.002737448409973348
0.002736245394622656
0.00272301222576506
0.002712185087608844
0.002703763980154009
0.002697748903400556
0.002694139857348485
0.002692936841997794
0.002679703673140197
0.002668876534983981
0.002660455427529147
0.002654440350775693
0.002650831304723622
0.002649628289372931
0.002636395120515334
0.002625567982359119
0.002617146874904284
0.002611131798150831
0.002607522752098759
0.002606319736748069
0.002593086567890472
0.002582259429734257
0.002573838322279422
0.002567823245525968
0.002564214199473897
0.002563011184123206
0.002549778015265609
0.002538950877109394
0.002530529769654559
0.002524514692901106
0.002520905646849035
0.002519702631498344
0.002506469462640747
0.002495642324484531
0.002487221217029697
0.002481206140276243
0.002477597094224172
0.002476394078873481
0.002463160910015884
0.002452333771859669
0.002443912664404834
0.002437897587651381
0.002434288541599309
0.002433085526248619
0.002419852357391023
0.002409025219234806
0.002400604111779972
0.002394589035026518
0.002390979988974447
0.002389776973623756
0.002376543804766159
0.002365716666609943
0.002357295559155109
0.002351280482401656
0.002347671436349584
0.002346468420998894
0.002333235252141296
0.002322408113985081
0.002313987006530246
0.002307971929776794
0.002304362883724722
0.002303159868374031
0.002289926699516434
0.002279099561360219
0.002270678453905385
0.002264663377151932
0.002261054331099859
0.002259851315749169
0.002246618146891572
0.002235791008735356
0.002227369901280521
0.002221354824527069
0.002217745778474997
0.002216542763124306
0.002203309594266709
0.002192482456110494
0.002184061348655659
0.002178046271902206
0.002174437225850134
0.002173234210499443
0.002160001041641847
0.002149173903485631
0.002140752796030796
0.002134737719277343
0.002131128673225271
0.002129925657874581
0.002116692489016984
0.002105865350860768
0.002097444243405934
0.002091429166652481
0.002087820120600409
0.002086617105249718
0.002073383936392122
0.002062556798235906
0.002054135690781072
0.002048120614027619
0.002044511567975547
0.002039999999999994
0.002025599999999994
0.002014399999999993
0.002006399999999993
0.002001599999999993
0.001999999999999994
0.001985599999999993
0.001974399999999993
0.001966399999999994
0.001961599999999993
0.001959999999999993
0.001945599999999994
0.001934399999999994
0.001926399999999994
0.001921599999999994
0.001919999999999994
0.001905599999999994
0.001894399999999994
0.001886399999999994
0.001881599999999994
0.001879999999999995
0.001865599999999995
0.001854399999999994
0.001846399999999995
0.001841599999999995
0.001839999999999995
0.001825599999999995
0.001814399999999995
0.001806399999999996
0.001801599999999995
0.001799999999999995
0.001785599999999996
0.001774399999999995
0.001766399999999996
0.001761599999999996
0.001759999999999996
0.001745599999999996
0.001734399999999996
0.001726399999999996
0.001721599999999996
0.001719999999999996
0.001705599999999997
0.001694399999999997
0.001686399999999997
0.001681599999999997
0.001679999999999997
0.001665599999999997
0.001654399999999997
0.001646399999999998
0.001641599999999997
0.001639999999999997
0.001625599999999997
0.001614399999999997
0.001606399999999998
0.001601599999999998
0.001599999999999997
0.001585599999999998
0.001574399999999998
0.001566399999999998
0.001561599999999998
0.001559999999999998
0.001545599999999998
0.001534399999999998
0.001526399999999998
0.001521599999999998
0.001519999999999998
0.001505599999999998
0.001494399999999998
0.001486399999999998
0.001481599999999998
0.001479999999999998
0.001465599999999998
0.001454399999999998
0.001446399999999999
0.001441599999999999
0.001439999999999998
0.001425599999999998
0.001414399999999999
0.001406399999999998
0.001401599999999999
0.001399999999999999
0.001385599999999999
0.001374399999999999
0.001366399999999999
0.001361599999999999
0.001359999999999999
0.001345599999999999
0.001334399999999999
0.001326399999999999
0.001321599999999999
0.001319999999999999
0.001305599999999999
0.001294399999999999
0.001286399999999999
0.001281599999999999
0.001279999999999999
0.001265599999999999
0.001254399999999999
0.001246399999999999
0.0012416
0.00124
0.0012256
0.0012144
0.0012064
0.0012016
0.0012
0.0011856
0.0011744
0.0011664
0.0011616
0.00116
0.0011456
0.0011344
0.0011264
0.0011216
0.001119999999999999
0.0011056
0.0010944
0.0010864
0.0010816
0.00108
0.0010656
0.0010544
0.0010464
0.0010416
0.001037037037037037
0.001023703703703704
0.001013333333333334
0.001005925925925926
0.001001481481481482
0.001000000000000001
0.0009866666666666674
0.0009762962962962965
0.0009688888888888895
0.0009644444444444449
0.0009629629629629628
0.0009496296296296293
0.000939259259259259
0.0009318518518518518
0.0009274074074074074
0.0009259259259259256
0.0009125925925925924
0.0009022222222222221
0.0008948148148148146
0.0008903703703703705
0.0008888888888888894
0.0008755555555555561
0.0008651851851851855
0.0008577777777777778
0.0008533333333333333
0.0008518518518518522
0.0008385185185185186
0.0008281481481481485
0.0008207407407407407
0.0008162962962962961
0.000814814814814814
0.0008014814814814809
0.0007911111111111106
0.0007837037037037035
0.0007792592592592589
0.0007777777777777771
0.0007644444444444439
0.0007540740740740738
0.0007466666666666663
0.0007422222222222218
0.0007407407407407408
0.0007274074074074073
0.0007170370370370372
0.0007096296296296294
0.0007051851851851849
0.0007037037037037038
0.0006903703703703706
0.0006799999999999999
0.0006725925925925925
0.0006681481481481477
0.0006666666666666657
0.0006533333333333326
0.0006429629629629624
0.0006355555555555551
0.0006311111111111107
0.0006296296296296289
0.0006162962962962957
0.0006059259259259254
0.0005985185185185181
0.0005940740740740736
0.0005925925925925926
0.0005792592592592593
0.0005688888888888889
0.0005614814814814814
0.0005570370370370367
0.0005555555555555557
0.0005422222222222223
0.0005318518518518517
0.0005244444444444444
0.0005199999999999997
0.0005185185185185177
0.0005051851851851844
0.0004948148148148142
0.000487407407407407
0.0004829629629629625
0.0004814814814814806
0.0004681481481481475
0.0004577777777777774
0.0004503703703703699
0.0004459259259259256
0.0004444444444444447
0.0004311111111111112
0.0004207407407407408
0.0004133333333333333
0.0004088888888888888
0.0004074074074074075
0.0003940740740740742
0.0003837037037037039
0.0003762962962962963
0.0003718518518518518
0.0003703703703703697
0.0003570370370370365
0.0003466666666666663
0.0003392592592592589
0.0003348148148148145
0.0003333333333333326
0.0003199999999999994
0.0003096296296296292
0.0003022222222222219
0.0002977777777777775
0.0002962962962962964
0.0002829629629629631
0.0002725925925925927
0.0002651851851851852
0.0002607407407407406
0.0002592592592592594
0.0002459259259259261
0.0002355555555555557
0.0002281481481481482
0.0002237037037037036
0.0002222222222222216
0.0002088888888888884
0.0001985185185185181
0.0001911111111111108
0.0001866666666666664
0.0001851851851851846
0.0001718518518518514
0.0001614814814814811
0.0001540740740740738
0.0001496296296296294
0.0001481481481481483
0.000134814814814815
0.0001244444444444446
0.0001170370370370371
0.0001125925925925924
0.0001111111111111113
9.777777777777796e-05
8.740740740740753e-05
8.000000000000005e-05
7.555555555555548e-05
7.407407407407363e-05
6.074074074074037e-05
5.037037037037007e-05
4.296296296296271e-05
3.851851851851828e-05
)


// ************************************************************************* //
