/*--------------------------------*- C++ -*----------------------------------*\
| =========                 |                                                 |
| \\      /  F ield         | OpenFOAM: The Open Source CFD Toolbox           |
|  \\    /   O peration     | Version:  v1912                                 |
|   \\  /    A nd           | Website:  www.openfoam.com                      |
|    \\/     M anipulation  |                                                 |
\*---------------------------------------------------------------------------*/
FoamFile
{
    version     2.0;
    format      ascii;
    class       Cloud<basicReactingMultiphaseParcel>;
    location    "0.003/lagrangian/iceFoamCloud";
    object      coordinates;
}
// * * * * * * * * * * * * * * * * * * * * * * * * * * * * * * * * * * * * * //

396
(
(0.2590042630887204 0.3704978684556398 0.09979531304604304 0.2707025554095968) 10293 20579 2
(0.3069699182102265 0.3465150408948867 0.2515469772178705 0.09496806367701624) 10373 20684 2
(0.1395253831450257 0.4302373084274872 0.3223279272781059 0.1079093811493812) 10373 20579 2
(0.2390514468994925 0.03400256808654763 0.3464717084637062 0.3804742765502537) 2373 4797 1
(0.1759621753497742 0.03316141981220588 0.378857492512907 0.412018912325113) 10293 20578 1
(0.1177005063371928 0.05947846332089082 0.3816712835105127 0.4411497468314036) 2373 4797 1
(0.01629610056550197 0.4918519497172491 0.1994772810639047 0.2923746686533443) 2294 4638 2
(0.04474089239104202 0.477629553804479 0.0169821922429457 0.4606473615615333) 10373 20684 2
(0.2348919308486109 0.06480331482386251 0.3825540345756946 0.3177507197518321) 10294 20422 1
(0.1944011034594852 0.4027994482702574 0.1489640725100609 0.2538353757601964) 2214 4482 2
(0.03799441716328002 0.4810027914183601 0.2965030215058848 0.1844997699124752) 2294 4482 2
(0.2603389982790223 0.1396705041765087 0.3698305008604889 0.2301599966839802) 2374 4797 1
(0.3612296352313612 0.3193851823843193 0.2682678328385525 0.0511173495457669) 10374 4800 2
(0.5080533953644443 0.2459733023177779 0.2265200812841212 0.01945322103365664) 2294 4482 2
(0.394552000801452 0.302723999599274 0.2145412116669878 0.08818278793228621) 2294 4638 2
(0.5195080714600128 0.1968060883131863 0.2402459642699935 0.0434398759568074) 2374 4797 1
(0.2279295385775115 0.3860352307112442 0.1106307923811827 0.2754044383300616) 2294 4482 2
(0.5051132886169287 0.2474433556915357 0.1386023106762724 0.1088410450152631) 10374 4800 2
(0.4552071796033457 0.2723964101983272 0.1134526529955069 0.1589437572028203) 2294 4482 2
(0.4657370874826754 0.2671314562586622 0.06193126978779066 0.2052001864708718) 2294 4482 2
(0.8318668868214588 0.08406655658927073 0.04357220728763039 0.04049434930164016) 10374 20684 2
(0.5420823043085241 0.2289588478457379 0.1575615052861314 0.07139734255960664) 2294 4641 2
(0.04843196387506209 0.3983519029906886 0.475784018062469 0.07743211507178029) 10374 20581 1
(0.04763545788270278 0.3908310610995495 0.4761822710586486 0.0853512099590991) 10374 20581 1
(0.9116478018772077 0.02134646442889441 0.02282963463250159 0.04417609906139629) 2294 4641 1
(0.7159070258429699 0.105982804954093 0.1420464870785151 0.03606368212442206) 2374 4641 1
(0.6488841142703018 0.06577825707348565 0.175557942864849 0.1097796857913636) 10374 4800 1
(0.6916974589803251 0.1541512705098375 0.03185081485706395 0.1223004556527734) 10294 20581 2
(0.6420617402763993 0.1789691298618005 0.1711033745577431 0.007865755304057196) 10294 20422 2
(0.5910784165565087 0.2044607917217457 0.1401830276769667 0.06427776404477892) 10294 20580 2
(0.503385728992956 0.2483071355035221 0.1873646305006021 0.06094250500291986) 10294 20580 2
(0.3608954333676807 0.05460790014396604 0.3195522833161596 0.2649443831721936) 10374 4800 1
(0.5004747527640203 0.2497626236179898 0.2443376939819256 0.005424929636064117) 2374 4799 2
(0.3989417245689465 0.01653480229686549 0.2839943354186613 0.3005291377155268) 10374 20685 1
(0.5017222690863185 0.07994457882614643 0.1691942866306943 0.2491388654568408) 2374 4799 1
(0.2807984388501858 0.07414038466553739 0.2854603959093698 0.3596007805749071) 10374 20685 1
(0.05853199631710275 0.4707340018414486 0.165500745949177 0.3052332558922717) 10294 20580 2
(0.07409394332487142 0.243404980255414 0.2195480480821502 0.4629530283375643) 2294 4640 1
(0.06160302888860295 0.4387144468997238 0.0304840386559748 0.4691984855556985) 10294 20580 1
(0.04364412453692879 0.1897760512135716 0.2884018865179641 0.4781779377315356) 10374 20685 1
(0.1683191988475992 0.4158404005762004 0.0358718291120639 0.3799685714641364) 10374 20685 2
(0.1925477832997069 0.4037261083501466 0.295191793108337 0.1085343152418096) 10295 20580 2
(0.1598594743615945 0.09400117483029055 0.4200702628192027 0.3260690879889122) 10375 20685 1
(0.1432504850901344 0.4068404568402456 0.4283747574549328 0.02153430061468716) 2375 4799 1
(0.2446936759907287 0.1908897960146835 0.3776531620046356 0.1867633659899523) 10375 20685 1
(0.1090258645411627 0.02218914780364822 0.4454870677294186 0.4232979199257705) 10375 20583 1
(0.3968533176122099 0.3015733411938951 0.2122822504172698 0.08929109077662507) 10295 20580 2
(0.4218033886780561 0.2765038877379224 0.2890983056609719 0.01259441792304957) 10295 20580 1
(0.03412784102828707 0.4829360794858564 0.3051051313838447 0.1778309481020118) 2215 4484 2
(0.1221895811122455 0.1464266029851137 0.4389052094438773 0.2924786064587637) 10375 20583 1
(0.4048848999638765 0.2975575500180617 0.1630377094692972 0.1345198405487647) 2295 4484 2
(0.01920095651806946 0.4903995217409653 0.3803944614869255 0.1100050602540398) 2215 4484 2
(0.4095669592006506 0.2952165203996746 0.2499713993865497 0.04524512101312519) 2375 4643 2
(0.716903363054096 0.138664784901423 0.1415483184729519 0.002883533571529053) 2295 4640 1
(0.7116452028658362 0.1441773985670819 0.07676086444577021 0.06741653412131171) 2295 4484 2
(0.1355295696685657 0.4322352151657173 0.3896495201273933 0.04258569503832384) 2375 4802 2
(0.2718019077966577 0.3640990461016712 0.3368041899186029 0.02729485618306823) 2375 4802 2
(0.8436190506122215 0.07819047469388925 0.03561390862742043 0.04257656606646869) 2295 4643 2
(0.5772560203389425 0.03719641257087356 0.1741755772596553 0.2113719898305287) 2215 4484 1
(0.6805990050307702 0.1414532160518085 0.01824728143280634 0.159700497484615) 2375 4802 1
(0.08407354580045956 0.4579632270997702 0.008604512377773314 0.449358714721997) 10375 20583 2
(0.4372569975921481 0.2813715012039259 0.01896568103205906 0.2624058201718668) 2215 4483 2
(0.7080050772889704 0.145997461355515 0.09195070807582445 0.0540467532796902) 10375 20583 2
(0.1919225643806224 0.1955163976313726 0.4040387178096888 0.2085223201783163) 2295 4484 1
(0.2977083448185629 0.3511458275907186 0.09271650239538899 0.2584293251953295) 10375 20583 2
(0.2742660943169528 0.1051197891939864 0.3628669528415236 0.2577471636475372) 2295 4484 1
(0.03817519197558444 0.4809124040122078 0.3050662087638552 0.1758461952483526) 10295 20583 2
(0.4081031997014274 0.01911121977137951 0.2768371803779067 0.2959484001492863) 2375 4802 1
(0.3429039465147766 0.02181546214700667 0.3285480267426117 0.3067325645956051) 10375 4802 1
(0.4085353997561501 0.2957323001219249 0.1658842874396583 0.1298480126822667) 2375 4801 2
(0.3619137734037975 0.2250023160943787 0.09404079720372253 0.3190431132981013) 10295 20582 1
(0.156496544666879 0.4217517276665607 0.2396255815459397 0.1821261461206207) 10295 20582 2
(0.06905253859917296 0.03277601958744261 0.4654737307004135 0.432697711112971) 10375 4802 1
(0.1751725447919937 0.1337838498032609 0.2786298778007422 0.4124137276040031) 10295 20582 1
(0.02851863713902644 0.05314078008722218 0.4325999013432646 0.4857406814304868) 10375 20686 1
(0.03614458486720546 0.3754987159738398 0.1064289915925575 0.4819277075663972) 10295 20582 1
(0.07816111599108892 0.2141008896569778 0.2468185523474778 0.4609194420044556) 10295 20582 1
(0.0767405711063326 0.06414909132957122 0.3974806231172625 0.4616297144468337) 2375 4801 1
(0.1743193903412503 0.324593587903425 0.4128403048293748 0.08824671692594989) 2296 4642 1
(0.2833852600697285 0.3583073699651357 0.09369306641961007 0.2646143035455257) 10296 20582 2
(0.1958886219606309 0.4020556890196846 0.357063587134021 0.04499210188566355) 10376 4804 2
(0.246097359400313 0.3769513202998435 0.1047424018159581 0.2722089184838854) 2376 4801 2
(0.2234993427584433 0.3882503286207784 0.1316365622074053 0.2566137664133729) 10376 20686 2
(0.05834752073548328 0.1034570281641791 0.3673692114680793 0.4708262396322583) 10296 20585 1
(0.4455105223760909 0.2772447388119545 0.1736412415165388 0.1036034972954158) 2376 4801 2
(0.51807109160159 0.240964454199205 0.001785388301032085 0.2391790658981729) 2376 4804 2
(0.5237305331142046 0.2381347334428975 0.04176486191590632 0.1963698715269916) 2376 4801 2
(0.2246779289704754 0.3876610355147622 0.2693731958207753 0.1182878396939871) 2376 4645 2
(0.7015107719886927 0.1492446140056536 0.1477438146291165 0.00150079937653727) 10296 20582 2
(0.5213408368551394 0.07178321147150123 0.167546370100929 0.2393295815724303) 10296 20585 1
(0.5046407453460556 0.2476796273269723 0.100551741662508 0.1471278856644642) 2296 4645 2
(0.3260222576364017 0.3369888711817991 0.06575773393829097 0.2712311372435082) 10376 4804 2
(0.2076525644382239 0.3814478526999349 0.3961737177808881 0.01472586508095327) 2296 4486 1
(0.6309697645807446 0.1845151177096278 0.08935273249652113 0.09516238521310652) 2376 4645 2
(0.1666904038207315 0.3299929850299831 0.08666181305965119 0.4166547980896342) 10296 20585 1
(0.192698036069632 0.2649831728830232 0.1386678090821609 0.403650981965184) 2216 4486 1
(0.8681444180501059 0.02113462911871214 0.04479316185623482 0.06592779097494711) 10296 20584 1
(0.1292155412099121 0.3322574076673947 0.1031348217276492 0.435392229395044) 2376 4804 1
(0.7106643198028627 0.08354047067507397 0.1446678400985687 0.06112736942349467) 2376 4645 1
(0.06158574075177865 0.4267474332250566 0.4692071296241107 0.04245969639905416) 2376 4645 1
(0.7006563082054627 0.1496718458972686 0.1333114719762393 0.01636037392102939) 10296 20584 2
(0.6380503343052111 0.1421301413250435 0.03884469152235092 0.1809748328473944) 2296 4644 1
(0.5194714478657001 0.24026427606715 0.1691083120632718 0.07115596400387818) 10376 20585 2
(0.1370233729121774 0.4314883135439112 0.2410389325581604 0.1904493809857511) 10296 20585 2
(0.4281050677026895 0.1879632574771206 0.09798420867153471 0.2859474661486553) 2296 4644 1
(0.3957965852726331 0.0711952484410707 0.2309064589226128 0.3021017073636834) 2296 4645 1
(0.4713776241247581 0.2465272412929965 0.0177839466446243 0.2643111879376209) 10376 20687 1
(0.1396794000046756 0.4301602999976623 0.2731692171720981 0.1569910828255641) 10376 20585 2
(0.06445696052826309 0.07211552877689306 0.3956559909589755 0.4677715197358684) 2376 4804 1
(0.290979950640679 0.1559494165073181 0.1985606081723424 0.3545100246796605) 2376 4803 1
(0.2434343515813869 0.3782828242093067 0.08148435981845026 0.2967984643908562) 10376 20687 2
(0.1926882239337649 0.4036558880331176 0.2344656931135255 0.1691901949195921) 10376 20687 2
(0.04727586646261236 0.4763620667686939 0.09377727928392557 0.3825847874847683) 10296 20585 2
(0.136292489967887 0.4318537550160565 0.04916748960852443 0.3826862654075321) 2296 4644 2
(0.0546241260277445 0.4726879369861278 0.2164793730248656 0.2562085639612622) 2377 4803 2
(0.07137061269821948 0.4643146936508903 0.07064171103157428 0.393672982619316) 10377 20687 2
(0.05971725980281641 0.2127749082596311 0.4701413700985918 0.2573664618389608) 2377 4803 1
(0.2340386829339397 0.3631656970407685 0.3829806585330301 0.01981496149226167) 10297 20584 1
(0.1577331272469253 0.4211334363765373 0.05978863934575143 0.361344797030786) 2377 4803 2
(0.2265062059814546 0.3867468970092727 0.2291830919439115 0.1575638050653613) 2297 4644 2
(0.1131915675237029 0.4434042162381486 0.3878105032056658 0.05559371303248276) 2377 4647 2
(0.477036014085367 0.2614819929573164 0.2385225664748638 0.0229594264824528) 2297 4488 2
(0.472339600139939 0.01197691574855624 0.2638301999300304 0.2518532841814743) 10377 20687 1
(0.5222697621084914 0.1736207486170548 0.2388651189457544 0.06524437032869948) 10297 20584 1
(0.56533560597029 0.05759111645550719 0.2173321970148551 0.1597410805593478) 2297 4644 1
(0.3658787811831328 0.3170606094084336 0.142670887901946 0.1743897215064876) 2297 4488 2
(0.3841050809183505 0.3079474595408246 0.09866618078475947 0.2092812787560654) 2297 4647 2
(0.4956649286762749 0.2521675356618626 0.1327388444723617 0.1194286911895008) 10377 4806 2
(0.8207815229584057 0.01763511331344364 0.08960923852079701 0.07197412520735347) 10297 20428 1
(0.7720529659103836 0.1139735170448081 0.07649465275148161 0.03747886429332672) 2297 4488 2
(0.06216681260920012 0.4689165936954 0.07353688148746387 0.3953797122079361) 10377 4806 2
(0.8570403323688045 0.06868068673384456 0.07147983381559778 0.002799147081753171) 10377 20687 1
(0.01188579523648605 0.4204913400133894 0.494057102381757 0.07356576236836755) 10377 20587 1
(0.5546376217310069 0.2097666545111109 0.01291453462338557 0.2226811891344966) 2377 4806 1
(0.7363091238785359 0.06384040824790155 0.1318454380607322 0.06800502981283052) 2297 4488 1
(0.1763906663277818 0.4118046668361092 0.4065929005983922 0.005211766237716946) 10297 20587 2
(0.8671427584387885 0.01488231544889888 0.0664286207806057 0.05154630533170697) 10377 4806 1
(0.5489065391723571 0.1391518445526664 0.08639488586115503 0.2255467304138215) 2297 4647 1
(0.295585246773486 0.352207376613257 0.2308308027393125 0.1213765738739444) 10297 20587 2
(0.1526834626756991 0.3016874816199131 0.1219707870422373 0.4236582686621505) 2297 4647 1
(0.4929860802779062 0.05235791477139785 0.201149045089649 0.2535069598610469) 2377 4806 1
(0.6246592164036932 0.1876703917981535 0.1161323651105663 0.0715380266875872) 2377 4805 2
(0.1090964045917013 0.2578366698178676 0.4454517977041492 0.1876151278862817) 2377 4647 1
(0.167394296761276 0.4163028516193619 0.2426635055819252 0.1736393460374367) 10377 20587 2
(0.398372492582916 0.3008137537085421 0.2865509349264027 0.01426281878213932) 2377 4805 2
(0.3826887108214938 0.2329563396133146 0.07569930497593853 0.3086556445892531) 2377 4805 1
(0.318616322287763 0.1378841119656613 0.2028077268904573 0.3406918388561185) 10297 20586 1
(0.2158354028529356 0.2571123659209189 0.1349699326526133 0.3920822985735322) 10377 20688 1
(0.1201666571815791 0.2131864634574367 0.2267302079517738 0.4399166714092105) 10377 20688 1
(0.08687206769426636 0.4565639661528668 0.3339455095832435 0.1226184565696233) 2297 4646 2
(0.1308831081625114 0.4345584459187442 0.08760362531347038 0.3469548206052739) 10377 20688 2
(0.1141242089636213 0.4429378955181894 0.1263800213960504 0.316557874122139) 10377 20688 2
(0.05897508669670711 0.3622822263532991 0.4705124566516465 0.1082302302983473) 10378 20688 1
(0.144595105397508 0.2390120151457506 0.427702447301246 0.1886904321554953) 10298 20586 1
(0.2088902029797046 0.2363771466099853 0.3955548985101477 0.1591777519001625) 10298 20586 1
(0.3412612898719697 0.08599054027719291 0.3293693550640153 0.2433788147868223) 2298 4646 1
(0.1558513694384762 0.202857536564428 0.4220743152807619 0.219216778716334) 2378 4805 1
(0.3504830914285173 0.3247584542857413 0.2940598221878326 0.03069863209790883) 2378 4805 2
(0.2768061553311537 0.3615969223344231 0.02180112812592688 0.3397957942084963) 2298 4649 2
(0.4583364088290047 0.1273745072195542 0.2708317955854976 0.1434572883659435) 10378 20688 1
(0.353012440568877 0.3234937797155615 0.1799552904240041 0.1435384892915575) 2298 4490 2
(0.5831550573176452 0.2084224713411775 0.01835922512522985 0.1900632462159475) 10298 20586 2
(0.2417929630932212 0.3791035184533895 0.1154769945040976 0.2636265239492918) 2298 4490 2
(0.0001163802373280147 0.499941809881336 0.1318962509973015 0.3680455588840345) 10378 4808 2
(0.7587650195740115 0.003416626508160445 0.1206174902129943 0.1172008637048337) 10298 20586 1
(0.2244098123244994 0.3877950938377503 0.176107232953263 0.2116878608844873) 2378 4649 2
(0.3362169329752528 0.1772883744786067 0.3318915335123737 0.154603159033767) 10378 20589 1
(0.5135154413962248 0.2432422793018876 0.005076864004585835 0.2381654152973018) 2298 4490 2
(0.2858145157458429 0.2861558616847725 0.3570927421270785 0.07093688044230612) 10378 20589 1
(0.00702187228034932 0.4422936021389318 0.05419546172089358 0.4964890638598253) 10298 20589 1
(0.5014273976058845 0.2492863011970578 0.2433150241654709 0.005971277031586812) 10298 20589 2
(0.06675239707880529 0.4393186905978721 0.02730511086272528 0.4666238014605974) 10298 20589 1
(0.06165315770012398 0.469173421149938 0.4488833134823974 0.02029010766754058) 10298 20589 2
(0.4764438640105794 0.2617780679947104 0.06999506659590851 0.1917830013988018) 10378 20589 2
(0.07325221240290887 0.3945640039800518 0.4633738937985454 0.0688098898184938) 2378 4649 1
(0.4149748476526968 0.1762334181816385 0.1162791579920131 0.2925125761736517) 2298 4649 1
(0.6726920393745688 0.1636539803127157 0.003348213029097644 0.160305767283618) 10298 20589 2
(0.1171939164935054 0.2157835237747579 0.2256195179784895 0.4414030417532472) 2378 4808 1
(0.4798477711281826 0.2556135290594073 0.004462585376501395 0.2600761144359088) 2298 4648 1
(0.4804578965129818 0.1677149402609437 0.09205611148256547 0.2597710517435091) 10378 20689 1
(8.003750928503517e-05 0.1879567264977359 0.4999599812453575 0.3120032547476215) 10378 4808 1
(0.4416839148491145 0.03893167765487775 0.2791580425754428 0.240226364920565) 2378 4649 1
(0.2193329077543157 0.3903335461228422 0.08864068032515955 0.3016928657976826) 10298 20589 2
(0.1025536963532385 0.1549568251617066 0.2937663266616743 0.4487231518233807) 2298 4648 1
(0.08209984790592119 0.2570585231492157 0.2018915528978238 0.4589500760470394) 2298 4648 1
(0.2110633041491592 0.3773597917683564 0.01710855615706396 0.3944683479254204) 2378 4807 1
(0.1334738369884687 0.1359090685784333 0.2973540129273324 0.4332630815057656) 10378 20689 1
(0.1423397477330581 0.2125068218789614 0.2163233042545096 0.4288301261334709) 2378 4807 1
(0.05606749096531792 0.471966254517341 0.4681445580261311 0.003821696491209932) 10379 4810 2
(0.1051751275558912 0.03223985172515076 0.4474124362220544 0.4151725844969037) 10379 20689 1
(0.01308536200870127 0.2505066938684948 0.4934573189956494 0.2429506251271546) 2379 4807 1
(0.0807399487191033 0.4596300256404483 0.07229626774919487 0.3873337578912535) 2379 4807 2
(0.2587950390414447 0.3233231838652558 0.3706024804792776 0.04727929661402185) 10299 20588 1
(0.2400214101530785 0.3799892949234608 0.2056061860596368 0.174383108863824) 2299 4648 2
(0.1161999620457232 0.06017342193055427 0.3817265970465842 0.4419000189771384) 10299 20591 1
(0.3346240548499503 0.3326879725750249 0.0180750698190064 0.3146129027560184) 2379 4810 2
(0.3544859953468481 0.3227570023265759 0.19002534070758 0.1327316616189959) 2379 4807 2
(0.4083851246254508 0.2864309587442004 0.2958074376872746 0.009376478943074158) 2379 4807 1
(0.5623384302772431 0.2188307848613786 0.005994524183404036 0.2128362606779744) 2299 4648 2
(0.01450835610224513 0.2278966482498755 0.4927458219488774 0.264849173699002) 10379 20591 1
(0.2230673754381527 0.3884663122809235 0.2062845982717468 0.1821817140091769) 2379 4810 2
(0.6114613826745653 0.1942693086627174 0.1294189382536837 0.06485037040903363) 2299 4648 2
(0.7836616916229748 0.001592533053803103 0.1081691541885124 0.1065766211347094) 2299 4648 1
(0.3294244802055012 0.3352877598972495 0.0286640055572677 0.3066237543399817) 2299 4492 2
(0.7968821411620167 0.03540785874158234 0.06615107067740918 0.1015589294189917) 10299 20591 1
(0.0359714172494409 0.4820142913752795 0.1343002145888183 0.3477140767864612) 2379 4651 2
(0.724560662913952 0.1377196685430241 0.06879602627739151 0.06892364226563245) 2299 4651 2
(0.7784329473580597 0.1107835263209703 0.09193072988011919 0.01885279644085097) 2299 4651 2
(0.1498313693475475 0.3931819485868129 0.4250843153262261 0.03190236673941328) 10379 20591 1
(0.0557403778109331 0.4079744862512674 0.06415532484326616 0.4721298110945334) 2379 4810 1
(0.8130787757550354 0.007448653540570524 0.08601195858191171 0.09346061212248233) 2299 4650 1
(0.2728924328731452 0.3563091358041094 0.3635537835634273 0.007244647759317999) 2379 4651 1
(0.7119331190976479 0.06188003631655535 0.08215340413462073 0.144033440451176) 2299 4650 1
(0.3505476747112438 0.2179146236060411 0.1068115390383371 0.3247261626443781) 2299 4651 1
(0.5239118486992954 0.0911764098104339 0.1468676658399184 0.2380440756503523) 2299 4651 1
(0.6803825942820825 0.1598087028589587 0.07802600385982812 0.08178269899913054) 10379 20690 2
(0.167296309808631 0.2111984081067442 0.2051534369889403 0.4163518450956845) 2379 4810 1
(0.05956337438915947 0.4702183128054203 0.1824442417522076 0.2877740710532127) 10379 20591 2
(0.512122600084695 0.2439386999576525 0.2336187917492001 0.0103199082084524) 10379 20591 2
(0.4254194145380401 0.28729029273098 0.1188519842673832 0.1684383084635968) 2379 4809 2
(0.3909387615232135 0.1643001723588645 0.1402304468795287 0.3045306192383933) 10379 20690 1
(0.404474903094074 0.297762548452963 0.2753830679695319 0.02237948048343123) 10379 20591 2
(0.2170395644803945 0.3570909871012744 0.03438923065852852 0.3914802177598027) 2299 4650 1
(0.2714437435824237 0.2628210265569056 0.1014571016518827 0.3642781282087881) 2379 4809 1
(0.2255307084980205 0.2591738875617566 0.1280607581892331 0.3872346457509898) 2379 4809 1
(0.1173306213403664 0.246874342552878 0.1944603467769388 0.4413346893298168) 10299 20590 1
(0.09832990545247333 0.4508350472737633 0.3651475777716821 0.0856874695020812) 2299 4650 2
(0.09653290691057662 0.0531328537862383 0.3986006927584734 0.4517335465447118) 10299 20590 1
(0.06341119740496148 0.4682944012975192 0.3648795131113687 0.1034148881861506) 2380 4809 2
(0.06598811764517547 0.4670059411774122 0.2076379577216533 0.259367983455759) 2300 4650 2
(0.1144256749587764 0.2688958518012066 0.4427871625206118 0.1738913107194053) 10380 20690 1
(0.07385501125242917 0.4630724943737854 0.2946147311540066 0.1684577632197789) 2300 4650 2
(0.1689764657889883 0.4155117671055059 0.09836651526258265 0.3171452518429232) 10380 20690 2
(0.2968520759129517 0.1696349594353896 0.3515739620435242 0.1819390026081346) 10300 20590 1
(0.2630588677276319 0.368470566136184 0.2336530396306543 0.1348175265055298) 10380 20690 2
(0.1670424436954604 0.4164787781522699 0.04690715947145614 0.3695716186808137) 2300 4653 2
(0.3254815473579142 0.337259226321043 0.06910148724672885 0.268157739074314) 10380 20690 2
(0.4342852013094086 0.008200576905977343 0.2828573993452957 0.2746568224393184) 10300 20590 1
(0.4924454324195803 0.2537772837902097 0.09837815513308086 0.1553991286571291) 2380 4809 2
(0.2652288535338543 0.3673855732330729 0.1616179495660634 0.2057676236670093) 2380 4812 2
(0.005648585798182495 0.2444209736458797 0.4971757071009087 0.2527547334550291) 10380 20593 1
(0.5594304658205219 0.2107648000770482 0.2202847670897392 0.009519967012690759) 2380 4809 1
(0.2298715700717455 0.3850642149641272 0.2082485817352532 0.1768156332288739) 2380 4653 2
(0.6922798904671132 0.0372620189342466 0.1538600547664434 0.1165980358321968) 2380 4809 1
(0.3195110913379163 0.3402444543310419 0.08733177874814695 0.2529126755828949) 10380 4812 2
(0.4299219926454456 0.1913773515380356 0.09366165213924166 0.2850390036772772) 10300 20593 1
(0.7160063662678928 0.1419968168660534 0.1131165925875195 0.02888022427853418) 2380 4653 2
(0.3599341230078579 0.3200329384960712 0.2538518579788946 0.06618108051717636) 2300 4653 2
(0.6660912308787095 0.135816710495099 0.1669543845606453 0.03113767406554623) 10380 20593 1
(0.2121812535377922 0.3592119125858791 0.0346974606452247 0.3939093732311038) 2380 4812 1
(0.4172434756427715 0.2913782621786142 0.2671566000579238 0.02422166212069049) 10300 20593 2
(0.3518543561941215 0.3146838432069581 0.009388978695981228 0.3240728219029392) 2300 4653 1
(0.425999664636286 0.198269374049493 0.287000167681857 0.08873079363236408) 10380 4812 1
(0.7356541675781659 0.04960431367492762 0.1321729162109171 0.08256860253598938) 2380 4653 1
(0.77861678629071 0.03210605492981895 0.07858555192482607 0.1106916068546451) 2380 4811 1
(0.6922406094031935 0.004962496149928081 0.1538796952984033 0.1489171991484751) 10380 4812 1
(0.656100594514838 0.1719497027425812 0.0904152969695106 0.08153440577307029) 2300 4652 2
(0.4259926639082505 0.07992865042409976 0.2870036680458748 0.207075017621775) 10380 4812 1
(0.5475421968570005 0.1224178001214662 0.1038111014500335 0.2262289015714997) 10380 20691 1
(0.4781613963427467 0.2609193018286268 0.1176177790394502 0.1433015227891765) 2300 4652 2
(0.5239544095130862 0.08511889568783951 0.1529038995556174 0.2380227952434569) 2380 4811 1
(0.4879881746257909 0.155259609316715 0.1007463033703894 0.2560059126871046) 2380 4811 1
(0.3258621617734149 0.3370689191132926 0.2857511090381737 0.05131781007511897) 10380 20593 2
(0.2808051070133494 0.3595974464933253 0.06995968283253086 0.2896377636607945) 2380 4811 2
(0.2241773795574641 0.04644954056070159 0.3414617696605663 0.387911310221268) 10380 20691 1
(0.2366051683432593 0.3816974158283704 0.2466003921037346 0.1350970237246358) 2380 4811 2
(0.2585526006183247 0.3245907781999299 0.04613292149090784 0.3707236996908377) 2380 4811 1
(0.1970010313256496 0.2527473942773518 0.1487520900598234 0.4014994843371752) 2380 4811 1
(0.09024499919439442 0.3971745770368724 0.05770292336593041 0.4548775004028028) 10380 20691 1
(0.06904814262837444 0.4654759286858127 0.3677452160829999 0.09773071260281294) 10380 20691 2
(0.07807073311567861 0.2361728007817882 0.2247918326603724 0.4609646334421607) 2380 4811 1
(3.128759878398366e-06 0.4999984356200608 0.02554537840587164 0.4744530572141892) 2381 4814 2
(0.09959413649675618 0.1306018600713957 0.450202931751622 0.3196010716802262) 10381 20691 1
(0.1161199001272415 0.4419400499363793 0.08784295885297577 0.3540970910834035) 2381 4811 2
(0.09841243261966764 0.4507937836901661 0.4070192592689354 0.04377452442123081) 10381 20691 2
(0.1513427300097522 0.424328634995124 0.04253008730264865 0.3817985476924753) 2381 4814 2
(0.1456239171845559 0.427188041407722 0.3026235046372449 0.124564536770477) 10381 20691 2
(0.2709813334007628 0.3645093332996188 0.2274747774679732 0.1370345558316454) 2301 4652 2
(0.4659813295631172 0.1176521551846589 0.2670093352184413 0.1493571800337826) 2301 4652 1
(0.1615305659026643 0.4192347170486678 0.06956635180733747 0.3496683652413303) 2301 4655 2
(0.5114543222015188 0.1517048243172414 0.2442728388992405 0.09256801458199927) 2301 4652 1
(0.4038143455039646 0.2980928272480178 0.1431202456573678 0.1549725815906499) 2381 4811 2
(0.1547933833084343 0.4226033083457828 0.3052942543109319 0.1173090540348508) 2381 4655 2
(0.5802154779673262 0.209892261016337 0.10254824591273 0.1073440151036068) 2301 4652 2
(0.3026794109322203 0.3486602945338898 0.1536740533087161 0.1949862412251737) 2381 4814 2
(0.4146224717626922 0.292688764118654 0.08127585253497351 0.2114129115836803) 2301 4655 2
(0.6434244290614098 0.1782877854692952 0.1325732893391362 0.04571449613015886) 2301 4652 2
(0.6887660080188635 0.01025652099916637 0.1556169959905681 0.1453604749914021) 10381 20691 1
(0.7375517845767126 0.131224107711644 0.06367704611483331 0.06754706159681031) 2301 4496 2
(0.6173117482764997 0.1913441258617503 0.08850194840612752 0.1028421774556225) 2301 4655 2
(0.5721904882090744 0.1330010750651734 0.0809036808302895 0.2139047558954629) 10301 20595 1
(0.8100265244725592 0.09498673776372045 0.09403450553506709 0.0009522322286532707) 10381 4814 2
(0.7062340080730937 0.1468829959634533 0.08959559265422883 0.0572874033092243) 2381 4814 2
(0.7566773367845374 0.1216613316077314 0.09068087694173053 0.03098045466600061) 2381 4814 2
(0.833749403026277 0.06232054878152087 0.08312529848686144 0.0208047497053408) 10381 20595 1
(0.9112736856443582 0.04436315717782106 0.0001935768868408415 0.04416958029097995) 10381 4814 2
(0.6577828204747477 0.1517038812357603 0.01940470852686591 0.171108589762626) 2301 4655 1
(0.9367987906105804 0.02807168899007179 0.003528915704638085 0.03160060469470961) 2381 4813 1
(0.1887304273735027 0.3740294932551025 0.4056347863132486 0.03160529305814608) 2381 4655 1
(0.2319257182612368 0.3840371408693816 0.3057185253873374 0.07831861548204412) 10301 20595 2
(0.4540081077830408 0.1567719351880982 0.1162240109203814 0.2729959461084795) 2381 4814 1
(0.6936225924936749 0.1531887037531627 0.09301124015330271 0.06017746359985969) 10381 20595 2
(0.7167016751941824 0.141649162402909 0.04405402329560185 0.09759513910730687) 2381 4813 2
(0.09791950834679798 0.3212926071661034 0.451040245826601 0.1297476386604977) 2381 4655 1
(0.4876393204802615 0.2561803397598693 0.05237186719810447 0.2038084725617646) 10301 20595 2
(0.6188325220196007 0.1905837389901998 0.04131850307914354 0.149265235911056) 10381 20692 2
(0.6243969983875318 0.04078450270987083 0.1470169980963633 0.187801500806234) 2381 4813 1
(0.04864572153552515 0.2722950691592256 0.2033820700730118 0.4756771392322374) 2301 4655 1
(0.4610096399427508 0.2687343656138482 0.0007608144147764381 0.2694951800286245) 10381 20692 1
(0.4616947349943286 0.07505423669400266 0.1940983958088332 0.2691526325028357) 2381 4813 1
(0.2017882871893467 0.07068758942544451 0.328418266979882 0.3991058564053266) 2381 4814 1
(0.2341144467783133 0.2646428122141862 0.1182999643966572 0.3829427766108434) 2301 4654 1
(0.2795990805574864 0.3602004597212569 0.06040094055175775 0.299799519169499) 2381 4813 2
(0.215368297962732 0.3923158510186341 0.04254030828194098 0.349775542736693) 2381 4813 2
(0.2247248763338625 0.03977606377035828 0.3478614980627106 0.3876375618330686) 10301 20594 1
(0.1610312740855485 0.1682137600932061 0.2512706028640197 0.4194843629572256) 10381 20692 1
(0.2388978758824512 0.1155598526706029 0.2649912093881716 0.3805510620587744) 2381 4813 1
(0.1166689069118252 0.4416655465440873 0.1634362387333521 0.2782293078107353) 2301 4654 2