/*--------------------------------*- C++ -*----------------------------------*\
| =========                 |                                                 |
| \\      /  F ield         | OpenFOAM: The Open Source CFD Toolbox           |
|  \\    /   O peration     | Version:  v1912                                 |
|   \\  /    A nd           | Website:  www.openfoam.com                      |
|    \\/     M anipulation  |                                                 |
\*---------------------------------------------------------------------------*/
FoamFile
{
    version     2.0;
    format      ascii;
    class       Cloud<basicReactingMultiphaseParcel>;
    location    "0.003/lagrangian/iceFoamCloud";
    object      positions;
}
// * * * * * * * * * * * * * * * * * * * * * * * * * * * * * * * * * * * * * //

396
(
(-0.4721524408646642 -0.05 0.06018033644305359) 10293
(-0.4735254905309723 -0.05 0.03211639981278083) 10373
(-0.47374143416593 -0.05 0.05015589954034618) 10373
(-0.4753143986684958 -0.05 -0.04606748210201093) 2373
(-0.4755176555001899 -0.05 0.06017369178134533) 10293
(-0.476836488849007 -0.05 -0.04807107798969131) 2373
(-0.4775789124835004 -0.05 -0.07011999361949017) 2294
(-0.4774765380367928 -0.05 0.05215354513670971) 10373
(-0.4787865162071824 -0.05000000000000002 0.1002374229081704) 10294
(-0.4797286764117234 -0.05 -0.11220223535536) 2214
(-0.4797039297061407 -0.04999999999999999 -0.1061908011363452) 2294
(-0.481027803824032 -0.05000000000000001 -0.04005114049949666) 2374
(-0.4818945463658177 -0.05 0.01005865677167232) 10374
(-0.4824167104543167 -0.05 -0.09416266334939107) 2294
(-0.4823347042731014 -0.05 -0.07011455880203156) 2294
(-0.4837251673611733 -0.04999999999999999 -0.03002875370825688) 2374
(-0.4846620864093463 -0.05 -0.1021738948200629) 2294
(-0.4852894839673196 -0.05 0.01406449614831879) 10374
(-0.4850753680578944 -0.05 -0.09616202713681989) 2294
(-0.4863603034494053 -0.05000000000000002 -0.09615987577517031) 2294
(-0.4873742295578362 -0.05 0.03009481287190032) 10374
(-0.4881235422015511 -0.05 -0.0701080710823974) 2294
(-0.4885061609652872 -0.05 0.05413871796966765) 10374
(-0.4883109328540668 -0.05 0.05413903419021467) 10374
(-0.4897467957367287 -0.05000000000000002 -0.08012518718283891) 2294
(-0.4908659177115625 -0.05000000000000001 -0.03603906139188566) 2374
(-0.4916193944725449 -0.05 0.01806719017369236) 10374
(-0.4920395808197252 -0.05 0.07416591135101926) 10294
(-0.4917212674193749 -0.05 0.09219335265046519) 10294
(-0.4930607667421875 -0.05 0.08618166976592846) 10294
(-0.4941476057907669 -0.05 0.08617934702209755) 10294
(-0.4950771340463177 -0.05 0.01004933375286973) 10374
(-0.4957057470751198 -0.04999999999999999 -0.0280225377538732) 2374
(-0.4960473672400753 -0.05 0.01205240141965763) 10374
(-0.4961959473949555 -0.05 -0.03804093816059606) 2374
(-0.497493437430907 -0.05 0.01205138954917599) 10374
(-0.4984685390961103 -0.05000000000000002 0.1001890254927325) 10294
(-0.4994060107519038 -0.05 -0.0961389218791429) 2294
(-0.499963608334186 -0.05 0.08216191341372629) 10294
(-0.5003962023784648 -0.05 0.01204943819547808) 10374
(-0.5005009374337906 -0.04999999999999999 0.05011363436707606) 10374
(-0.5017343489306428 -0.05 0.100181651374966) 10295
(-0.5029284811128925 -0.05 0.01004433565873913) 10375
(-0.5037954149389094 -0.05 -0.03002459896274084) 2375
(-0.5043776816868095 -0.05 0.01805681988477672) 10375
(-0.5047265948833742 -0.05 0.05411392391531886) 10375
(-0.5047704926645569 -0.04999999999999999 0.0961701148293054) 10295
(-0.5061216427015927 -0.05 0.08415259593853086) 10295
(-0.5072330127845082 -0.05 -0.1141523942189031) 2215
(-0.5081045617689883 -0.05 0.05410917965043287) 10375
(-0.5087003805613118 -0.05000000000000002 -0.1021334180614008) 2295
(-0.5090486639419602 -0.05000000000000001 -0.1141492107288936) 2215
(-0.5092397308736965 -0.05000000000000003 -0.04604880533223939) 2375
(-0.5105341456934704 -0.04999999999999999 -0.08610834928293198) 2295
(-0.5116063590561234 -0.05 -0.09411809491213484) 2295
(-0.5124750519168556 -0.05 -0.003982793550274626) 2375
(-0.5130835163946779 -0.05 -0.007989096052658136) 2375
(-0.5134426672859062 -0.04999999999999999 -0.08209925108548835) 2295
(-0.5135029228544212 -0.05 -0.1301620409087083) 2215
(-0.5149003201149492 -0.05 -0.02000741799886539) 2375
(-0.5159558568893314 -0.05000000000000002 0.05610136109653399) 10375
(-0.5167623547412901 -0.05 -0.1281534032638206) 2215
(-0.5174166147595528 -0.05 0.03807536477267444) 10375
(-0.5177503075239115 -0.05 -0.1101297055139565) 2295
(-0.5178973181054042 -0.05 0.05009096278471692) 10375
(-0.5191989704740774 -0.05 -0.1081250688399679) 2295
(-0.5203020646337582 -0.05 0.06010076060030301) 10295
(-0.5211746414429209 -0.05 -0.01199626030454863) 2375
(-0.5217715926063601 -0.05 0.01003385916275929) 10375
(-0.5221482272531714 -0.05 -0.02201002964810966) 2375
(-0.5222032696617132 -0.05000000000000002 0.08212220303697169) 10295
(-0.523497363667786 -0.04999999999999999 0.09813583142765453) 10295
(-0.5246686975314476 -0.05 0.002021896085973331) 10375
(-0.525484033639335 -0.05 0.07210719666538676) 10295
(-0.5261201213052704 -0.05 0.004023996169728487) 10375
(-0.5264309456432266 -0.05 0.08211556774887532) 10295
(-0.5265715222485399 -0.05 0.074107623433127) 10295
(-0.5279490969278808 -0.05 -0.05404969777050943) 2375
(-0.5289947678807732 -0.05 -0.09409579471340597) 2296
(-0.5297862781367594 -0.05 0.0941213164389067) 10296
(-0.5304648492348961 -0.05 0.006024860328077078) 10376
(-0.5308394942776546 -0.05 -0.0240119571107834) 2376
(-0.5309421747610263 -0.04999999999999999 0.03806254334988088) 10376
(-0.5322580214178588 -0.05 0.06208776224178756) 10296
(-0.5333675921287111 -0.05 -0.02000699726036432) 2376
(-0.5342128207950636 -0.05 -0.01600230560714652) 2376
(-0.5348223154002617 -0.05000000000000002 -0.02801615332342727) 2376
(-0.5351927626352693 -0.05000000000000002 -0.05404553555938853) 2376
(-0.5352198498786657 -0.05 0.09811592281636607) 10296
(-0.5365853064994188 -0.05 0.07609558220133111) 10296
(-0.5377126351261527 -0.05000000000000001 -0.07606785663750754) 2296
(-0.538548157877634 -0.05000000000000001 0.01002621859055812) 10376
(-0.5391131463683949 -0.05 -0.1141024758118565) 2296
(-0.5395328452816404 -0.04999999999999999 -0.04203044346844634) 2376
(-0.539624492120491 -0.05 0.06608305848709324) 10296
(-0.5409112954815269 -0.05 -0.1261104007318599) 2216
(-0.5419942766305124 -0.05 0.08809786116261337) 10296
(-0.5428942000913913 -0.05 -0.003990021744409033) 2376
(-0.5435108958649609 -0.05 -0.04002697387416779) 2376
(-0.543878467369999 -0.05 -0.0600468789716159) 2376
(-0.5439243795412854 -0.05 0.09209814202901422) 10296
(-0.5452868888322902 -0.05 -0.09407750796994881) 2296
(-0.5463805273491764 -0.05 0.04605730145483249) 10376
(-0.5472211130926604 -0.05000000000000002 0.06607449941079081) 10296
(-0.5478170291780212 -0.05 -0.09807818327454439) 2296
(-0.5482135611414041 -0.05 -0.07405747377281433) 2296
(-0.548318078633025 -0.05 0.03004108737273366) 10376
(-0.5496355147441259 -0.05 0.05806503944657816) 10376
(-0.5507327381155009 -0.05 -0.00198954893540968) 2376
(-0.5515860736455788 -0.05 -0.04402808277637991) 2376
(-0.5521703072178552 -0.05 0.05005593407712765) 10376
(-0.5525358033394561 -0.05 0.04204885344530865) 10376
(-0.5526525611203875 -0.05 0.06406714959173063) 10296
(-0.5540025039332382 -0.05000000000000001 -0.07004992385114371) 2296
(-0.5550746108496388 -0.05 -0.01800430495170327) 2377
(-0.5559080579660454 -0.05 0.03604149642637946) 10377
(-0.5565309623209521 -0.05 -0.0480297753981069) 2377
(-0.5568313955984469 -0.05 0.09208115201144232) 10297
(-0.5570101079025747 -0.05000000000000001 -0.02801272564261138) 2377
(-0.558327170913853 -0.05 -0.08005460580232845) 2297
(-0.5594211799220721 -0.05 -0.060038297476813) 2377
(-0.5602162420928197 -0.05000000000000001 -0.110073856978262) 2297
(-0.560854347315674 -0.04999999999999999 0.01602284688373672) 10377
(-0.561173957140598 -0.05000000000000001 0.09007489630217179) 10297
(-0.5613118070516327 -0.05 -0.1040687211692652) 2297
(-0.562623855130736 -0.05 -0.1140739158015065) 2297
(-0.5637516600904271 -0.05000000000000002 -0.07604795022803754) 2297
(-0.5645847469747789 -0.05 0.01602147742493076) 10377
(-0.5651331579843123 -0.04999999999999999 0.1000757804547905) 10297
(-0.5655278742726272 -0.05000000000000001 -0.1020634243961077) 2297
(-0.5656778414852557 -0.05 0.002010826403201238) 10377
(-0.566990476756537 -0.05000000000000001 0.03203197408195804) 10377
(-0.5680686229144714 -0.05 0.06405316264864874) 10377
(-0.5689248394004098 -0.05000000000000001 -0.01800398552050989) 2377
(-0.5694964259543364 -0.05 -0.1040610682032174) 2297
(-0.5698775714355567 -0.05000000000000001 0.07005550262947675) 10297
(-0.5703322845965704 -0.05 0.02802762454352273) 10377
(-0.5717730566852059 -0.05 -0.08204636688784175) 2297
(-0.5728807413675692 -0.05 0.07405507841768529) 10297
(-0.5737096489287216 -0.05000000000000001 -0.0700379692779019) 2297
(-0.5741814862496073 -0.05 -0.01600255710715759) 2377
(-0.5743431094607562 -0.05000000000000001 -0.02801040277772725) 2377
(-0.5757862588966444 -0.04999999999999998 -0.06203176634119158) 2377
(-0.5768872554617708 -0.05 0.06004393607434752) 10377
(-0.5777005712713776 -0.05 -0.03201247611937464) 2377
(-0.5781833658470382 -0.05 -0.03801609028681079) 2377
(-0.5783097208262877 -0.05 0.08405500745589228) 10297
(-0.5797702199832971 -0.05 0.02402134114489896) 10377
(-0.5808909893716525 -0.05 0.01801748139563902) 10377
(-0.5816823309739058 -0.05 -0.09004418065079953) 2297
(-0.5821680167890375 -0.05 0.05603819764258468) 10377
(-0.5823286933653753 -0.05 0.05403701111901291) 10377
(-0.5837664642525364 -0.05000000000000001 0.02602102878145707) 10378
(-0.5848589205476564 -0.05 0.08605044457469392) 10298
(-0.5856580736290503 -0.05 0.08805057880752055) 10298
(-0.5861350467340948 -0.05000000000000001 -0.1140520942097911) 2298
(-0.58633733353468 -0.05 -0.04801975062727331) 2378
(-0.5877671472206312 -0.05 -0.0140013914700277) 2378
(-0.5888906017195445 -0.05 -0.07603348328972423) 2298
(-0.5896770198235239 -0.05 0.02401800162572445) 10378
(-0.5901253302114742 -0.05000000000000001 -0.1200514836381728) 2298
(-0.5902787279789216 -0.05 0.1000512249337675) 10298
(-0.5917155985456199 -0.05 -0.1240518595302614) 2298
(-0.5928754385241863 -0.05 5.512347334744923e-06) 10378
(-0.5936380356218955 -0.05000000000000002 0.09204591944612672) 10298
(-0.5941593001656486 -0.05 -0.0600234170615776) 2378
(-0.5943062740696082 -0.05 0.05603139253680617) 10378
(-0.5957097813481175 -0.05000000000000001 -0.1160457916625384) 2298
(-0.5968543283574941 -0.05 0.05803102342086815) 10378
(-0.5976531441992423 -0.05 0.06803502055759718) 10298
(-0.5981176641627781 -0.05 0.08404035152478151) 10298
(-0.5982936388902838 -0.05000000000000001 0.07003552985026917) 10298
(-0.5997248322705727 -0.05 0.07003474828215905) 10298
(-0.6008388205810553 -0.05000000000000001 0.05202661667878748) 10378
(-0.6016509187903383 -0.04999999999999999 -0.06602363177907465) 2378
(-0.6021228501691668 -0.05000000000000001 -0.08202979513875008) 2298
(-0.6022543092391242 -0.05 0.09003955743456522) 10298
(-0.6037135737509818 -0.05 -0.003997198027007693) 2378
(-0.6048040030171411 -0.05 -0.1020352790735477) 2298
(-0.605617030085384 -0.05 0.02801525813399506) 10378
(-0.6061040738630863 -0.05 4.258921605977485e-06) 10378
(-0.6062664482218409 -0.05 -0.05401731677108927) 2378
(-0.6076823563370819 -0.05000000000000001 0.07603279126028102) 10298
(-0.6087669793710767 -0.05 -0.1220394824647235) 2298
(-0.6095663151874382 -0.05 -0.1160371816226059) 2298
(-0.6100775125953002 -0.05000000000000001 -0.03600962134872827) 2378
(-0.6102354779167896 -0.05 0.01400906632159366) 10378
(-0.6116660223541492 -0.05 -0.05001459503791025) 2378
(-0.6127771787758932 -0.05000000000000001 0.002004459291565958) 10379
(-0.6135707788829967 -0.05 0.006005794113291586) 10379
(-0.6140508888666741 -0.05 -0.05201482849525101) 2379
(-0.6142075900062963 -0.05000000000000001 -0.03000696809329078) 2379
(-0.6155977912848443 -0.05 0.1000346598421923) 10299
(-0.6167339929423057 -0.05 -0.09002641296544697) 2299
(-0.6175330624320883 -0.05 0.07402783469827685) 10299
(-0.6180158194374705 -0.05 -0.01200061571217238) 2379
(-0.618174481251051 -0.05 -0.02200395363024957) 2379
(-0.6195962474171182 -0.05 -0.03600848176105859) 2379
(-0.620683405242463 -0.05 -0.1040285600320703) 2299
(-0.6214948689636819 -0.05 0.07002504365740753) 10379
(-0.6219775369140076 -0.05 -0.007999358699529724) 2379
(-0.6221213512357625 -0.05 -0.09602600373961312) 2299
(-0.6235284317367402 -0.04999999999999999 -0.1120294139247859) 2299
(-0.6246277245260926 -0.05 -0.1280329024936976) 2299
(-0.6254255337023129 -0.05000000000000001 0.09802968394773177) 10299
(-0.6259388326557814 -0.05 -0.07001812460728156) 2379
(-0.6260775952810779 -0.05 -0.09602463467834882) 2299
(-0.6274938420020023 -0.05 -0.09802462908665548) 2299
(-0.6286113386806927 -0.05 0.06602150854860644) 10379
(-0.6294092840292778 -0.05 -0.001997762987419685) 2379
(-0.6298553276926692 -0.05000000000000002 -0.1120269964672752) 2299
(-0.6300440377350214 -0.05 -0.06201487533216218) 2379
(-0.6314311005967901 -0.05 -0.1120264340911233) 2299
(-0.6325605606291189 -0.05000000000000001 -0.08402010470566978) 2299
(-0.6333436777098863 -0.05000000000000002 -0.09002113968438578) 2299
(-0.6338191055324103 -0.05 0.04201362643179921) 10379
(-0.633985568388896 -0.05 -0.005999005208212363) 2379
(-0.6353948917359089 -0.05 0.07002067715184844) 10379
(-0.6364950170185952 -0.05000000000000001 0.05401622004818615) 10379
(-0.6372879051744859 -0.05 -0.02400371057170513) 2379
(-0.6377578608448905 -0.05 0.02600891893365554) 10379
(-0.6379154229342706 -0.05000000000000002 0.05801692355591966) 10379
(-0.639309639460138 -0.05 -0.1100234466593892) 2299
(-0.6404331625812951 -0.05 -0.04400854887009838) 2379
(-0.6412187015498951 -0.05 -0.04600895642403222) 2379
(-0.6416714057186932 -0.05000000000000001 0.09402325484081182) 10299
(-0.6418329847429279 -0.05 -0.1020212073206232) 2299
(-0.6432532845097244 -0.05000000000000001 0.080020777501251) 10299
(-0.6443589017002807 -0.05000000000000001 -0.01000014224465927) 2380
(-0.6451331892370169 -0.05000000000000001 -0.09401893089276819) 2300
(-0.645610732019033 -0.05 0.0240075799806572) 10380
(-0.6457691070629851 -0.05000000000000002 -0.08801775470577428) 2300
(-0.6471716934867733 -0.05 0.04401179796937935) 10380
(-0.6482529740790953 -0.05000000000000001 0.09602153869039892) 10300
(-0.6490511004321124 -0.05 0.05401364247802486) 10380
(-0.6495346689463501 -0.05 -0.08001563038209671) 2300
(-0.6496797302693735 -0.05 0.04201095166244236) 10380
(-0.6510745891788137 -0.05 0.0900199648119144) 10300
(-0.6521811435267915 -0.05 -0.03000437406778998) 2380
(-0.6529648102017163 -0.04999999999999999 -0.01000015578229503) 2380
(-0.6534313196128199 -0.05 0.07401702515002866) 10380
(-0.6535898551092214 -0.05000000000000002 -0.03800594280511226) 2380
(-0.6549936478976925 -0.04999999999999999 -0.06601163106217119) 2380
(-0.6560814248167272 -0.05 -0.04600735268236891) 2380
(-0.6568609207795528 -0.05 0.01200411366339032) 10380
(-0.6573168568923222 -0.05 0.09001826490452844) 10300
(-0.6574868858122156 -0.05000000000000001 -0.04800761227199118) 2380
(-0.6588811630658005 -0.05 -0.08801490938915919) 2300
(-0.6599659800576561 -0.05 0.05001089255271868) 10380
(-0.6607512261428371 -0.05 -0.007999771891443505) 2380
(-0.661205147698405 -0.05 0.09001724979954552) 10300
(-0.6613713181672998 -0.05 -0.0880143950714548) 2300
(-0.6627637060284796 -0.05 0.01600441908344457) 10380
(-0.6638498678195167 -0.05 -0.04800698918128326) 2380
(-0.6646254294049406 -0.05000000000000001 -0.04400618766835603) 2380
(-0.6650887287821525 -0.05000000000000001 0.02600593309300208) 10380
(-0.6652322501733811 -0.05 -0.1060157587660544) 2300
(-0.6666357163662178 -0.05 0.01600415064714797) 10380
(-0.6677147600191939 -0.04999999999999999 0.03000635774028403) 10380
(-0.6684797698636556 -0.05000000000000001 -0.1020145622335394) 2300
(-0.6689566637278809 -0.05 -0.05000685497679251) 2380
(-0.6693959475851841 -0.05 -0.04600613533808817) 2380
(-0.6706757896471796 -0.05 0.06401156615304301) 10380
(-0.6716789500863124 -0.05 -0.01600110121832288) 2380
(-0.6723926488994694 -0.05000000000000002 0.01200320758561724) 10380
(-0.6728204855736456 -0.05 -0.02800297594706952) 2380
(-0.6729635744899245 -0.05 -0.04200519183012114) 2380
(-0.6742434003776286 -0.05 -0.05000634849611339) 2380
(-0.6752352633287575 -0.05 0.03400627764575937) 10380
(-0.6759468970030379 -0.05 0.04600796570253422) 10380
(-0.6763798822446073 -0.05000000000000001 -0.05600705617462841) 2380
(-0.6765261980277912 -0.05 1.316334857142527e-06) 2381
(-0.6777968177755526 -0.05000000000000001 0.01400324618629381) 10381
(-0.6787886237746092 -0.05 -0.03200333414391667) 2381
(-0.6794972164103064 -0.05 0.07001092032383407) 10381
(-0.6799285288823578 -0.05000000000000001 -0.005999622184376597) 2381
(-0.680064955241011 -0.05 0.06200967257836203) 10381
(-0.6813313550610745 -0.05 -0.09801172182290097) 2301
(-0.6823059650189093 -0.05 -0.1260141142682457) 2301
(-0.6830382089707709 -0.05 -0.08401021278623047) 2301
(-0.6834402833445408 -0.04999999999999999 -0.1220134886708629) 2301
(-0.6836015264413793 -0.05000000000000001 -0.02800258547870841) 2381
(-0.6848703157701415 -0.04999999999999999 -0.07200835333077175) 2381
(-0.6858404779504973 -0.05000000000000001 -0.1080117880919472) 2301
(-0.686558799589597 -0.05 -0.01200044944935754) 2381
(-0.6869765493495977 -0.05 -0.09401045097239139) 2301
(-0.6871105289235098 -0.05000000000000001 -0.1060113939256786) 2301
(-0.6883798224370339 -0.05 0.02800436261917104) 10381
(-0.6893437283824126 -0.05 -0.1260125993117418) 2301
(-0.6900570427817174 -0.05 -0.1020105646688784) 2301
(-0.6904733734433887 -0.05000000000000002 0.1000116759286204) 10301
(-0.6906249786834312 -0.05000000000000002 0.03200463736542253) 10381
(-0.6918818644059473 -0.05000000000000001 -0.02800224612391952) 2381
(-0.6928590294603881 -0.05 -0.03000243165626246) 2381
(-0.6935545186758553 -0.05 0.04600593895540137) 10381
(-0.6939741980196878 -0.05 0.03600479160043674) 10381
(-0.6941094811954753 -0.05 -0.1040100269857837) 2301
(-0.6953663952214978 -0.05 -0.04000343300659) 2381
(-0.6963443010612971 -0.05 -0.07200704073056646) 2381
(-0.6970325224544659 -0.05 0.08800995108460437) 10301
(-0.6974537039176403 -0.05 -0.01800096613097031) 2381
(-0.6975887733810289 -0.05 0.05200621329705295) 10381
(-0.6988341859328771 -0.05000000000000001 -0.03200239056388079) 2381
(-0.6998083967897486 -0.05000000000000001 -0.07600713854804894) 2381
(-0.7004853357639997 -0.04999999999999999 0.09800980051848168) 10301
(-0.7009069922059838 -0.05000000000000001 0.05200589407368727) 10381
(-0.7010488111480208 -0.05 -0.05200442313687065) 2381
(-0.7022921253057304 -0.05 -0.08200752387953761) 2301
(-0.7032442816232977 -0.05 0.04000448172284812) 10381
(-0.703935036018459 -0.05 -0.05600464282023894) 2381
(-0.7043516886240238 -0.05 -0.007999929077142929) 2381
(-0.7044689691694195 -0.05000000000000001 -0.1280100161603487) 2301
(-0.7057174095256011 -0.05 -0.01600065711769005) 2381
(-0.7066752020651645 -0.05 -0.01200029345946555) 2381
(-0.7073507891735296 -0.04999999999999999 0.09200857852756777) 10301
(-0.7077657634873226 -0.04999999999999999 0.02000241353206859) 10381
(-0.7079043078876939 -0.05 -0.06200495173423021) 2381
(-0.7091216574397512 -0.05 -0.09800756492486959) 2301
(-0.710071014582452 -0.05 -0.1000075478088495) 2301
(-0.7107563671506801 -0.05 -0.01200030572804964) 2382
(-0.7111606998260112 -0.04999999999999999 -0.09400714145802938) 2301
(-0.7112991706715185 -0.05 -0.02000098544098648) 2382
(-0.7125084674666119 -0.05 0.03400338726223597) 10382
(-0.7134556388063249 -0.05000000000000001 -0.02200113524172627) 2382
(-0.7141182040284508 -0.05 -0.1120076668978573) 2302
(-0.7145328974302363 -0.05 0.07600670685151495) 10382
(-0.7146683268124483 -0.05 0.02200235970118651) 10382
(-0.7158699602578641 -0.05 0.03400321369740967) 10382
(-0.7168089788213787 -0.05 0.07800660548582226) 10382
(-0.7174771789035532 -0.05 -0.01800078949726941) 2382
(-0.717877381788448 -0.05000000000000001 -0.03600213538035986) 2382
(-0.7180114756312066 -0.05 0.03200296578970904) 10382
(-0.7192044651704513 -0.05000000000000001 0.05600458443696425) 10382
(-0.7201347165663913 -0.04999999999999999 -0.04400261843393071) 2382
(-0.720795214197235 -0.05000000000000001 0.03600307410159386) 10382
(-0.7211927970958534 -0.05 0.03400291731855453) 10382
(-0.7213267573735378 -0.05 0.05600440687958545) 10382
(-0.7225136062473947 -0.05000000000000001 -0.08800566895370841) 2302
(-0.7234305179778687 -0.05 -0.0580033741643958) 2382
(-0.7240842147544722 -0.05 0.06600479434431264) 10382
(-0.7244795582759155 -0.05 -0.03400175432029255) 2382
(-0.7246164792778775 -0.05 -0.08400526217275466) 2302
(-0.7257823679728698 -0.05000000000000001 0.0280022829105529) 10382
(-0.7266852623607792 -0.04999999999999999 -0.1120060886874549) 2302
(-0.7273400589521558 -0.04999999999999999 0.03200241757251412) 10382
(-0.7277314713728176 -0.05 0.08400563140573594) 10302
(-0.727861675337695 -0.05 0.03200241133193326) 10382
(-0.7290216604891488 -0.05000000000000001 0.002000596320540122) 10382
(-0.7299195141013657 -0.05 -0.0680035174623464) 2382
(-0.7305510206562763 -0.05000000000000001 -0.1240059514025289) 2302
(-0.7309449130613538 -0.05 -0.04200190569390862) 2382
(-0.7310669297816207 -0.05000000000000001 -0.1200058081320869) 2302
(-0.7322183224455683 -0.05 0.006000742497397051) 10382
(-0.7331016328637947 -0.05 0.09400510499601515) 10302
(-0.7337352975155613 -0.05 0.09000490074915747) 10302
(-0.7341175827070729 -0.05 -0.05400235574227592) 2382
(-0.7342452235109191 -0.05 -0.03800153227410968) 2382
(-0.7353643676745698 -0.05 -0.1260052261731158) 2302
(-0.7362449574613188 -0.05 0.0900044929721216) 10302
(-0.736870291502905 -0.04999999999999999 0.01400092236657968) 10382
(-0.7372423615471165 -0.05000000000000001 0.04200216898485348) 10382
(-0.737369532804056 -0.05000000000000002 0.09000439617411107) 10302
(-0.7384782596736035 -0.04999999999999999 0.0420020887488334) 10382
(-0.739341529563476 -0.05 -0.08600333628455628) 2302
(-0.7399539896149688 -0.05 -0.09000329763499654) 2302
(-0.7403212082414251 -0.05 -0.01400014623986009) 2382
(-0.740445579871212 -0.05 -0.02200045685251087) 2382
(-0.7415354163979329 -0.05000000000000002 -0.09200310924802435) 2302
(-0.7423792375124295 -0.05 -0.03200076707321069) 2382
(-0.7429800823193706 -0.05 0.0360013835279402) 10382
(-0.7433393955707361 -0.04999999999999999 -0.1020028657532488) 2302
(-0.7434612443638959 -0.05 0.09800329523892021) 10302
(-0.744531550299611 -0.05000000000000001 0.08000271436674415) 10382
(-0.7453554600215848 -0.05 -0.1220028823821871) 2303
(-0.7459455098497261 -0.05000000000000001 -0.1100024618383025) 2302
(-0.7462999558640917 -0.05 0.07600218910867323) 10382
(-0.7464176755499896 -0.05 -0.1160026055649511) 2303
(-0.7474635621510863 -0.05 -0.1060021222955526) 2303
(-0.7482731601469634 -0.05 0.02600064020966929) 10383
(-0.7488483294712904 -0.04999999999999998 -0.09200162882202899) 2303
(-0.7491888042699396 -0.05000000000000002 -0.1260019602113766) 2303
(-0.7493101208848501 -0.05 1.727326099248463e-07) 2383
(-0.7503268463759144 -0.05 -0.06000091654672664) 2383
(-0.7511139603835282 -0.05 0.01200025885401456) 10383
(-0.751671755303557 -0.05000000000000001 -0.1020011159730028) 2303
(-0.7520069586094014 -0.05 -0.04000036466928446) 2383
(-0.7521203131832354 -0.05 -0.04000039125753339) 2383
(-0.7531090177601264 -0.05 0.01000016865316211) 10383
(-0.7538716444355403 -0.05 0.06800062423646518) 10383
(-0.7544128755268865 -0.04999999999999999 0.04200032556072907) 10383
(-0.7547368102552243 -0.05 0.05400037375690267) 10383
(-0.7548462298598712 -0.05000000000000001 0.01600014415116523) 10383
(-0.7558018638852164 -0.05000000000000002 -0.02600005836986196) 2383
(-0.7565383665034247 -0.05 -0.1020002520424224) 2303
(-0.7570601333373657 -0.05 0.02600006216879692) 10383
(-0.757372122573841 -0.05 0.02400004494205445) 10383
)


// ************************************************************************* //
