/*--------------------------------*- C++ -*----------------------------------*\
| =========                 |                                                 |
| \\      /  F ield         | OpenFOAM: The Open Source CFD Toolbox           |
|  \\    /   O peration     | Version:  v1912                                 |
|   \\  /    A nd           | Website:  www.openfoam.com                      |
|    \\/     M anipulation  |                                                 |
\*---------------------------------------------------------------------------*/
FoamFile
{
    version     2.0;
    format      ascii;
    class       vectorField;
    location    "0.003/lagrangian/iceFoamCloud";
    object      U;
}
// * * * * * * * * * * * * * * * * * * * * * * * * * * * * * * * * * * * * * //


396
(
(97.64132779837063 0 0.5071952993027651)
(97.58010927573731 0 0.3473307085818206)
(97.62660660959079 0 0.4483084947915942)
(97.47362861563127 0 -0.1276108228808019)
(97.66930879341825 0 0.49623234461118)
(97.4873030373186 0 -0.1392255669060195)
(97.49465115171506 0 -0.2712883192314471)
(97.66368399216127 0 0.4478953536284412)
(97.85259321829668 0 0.6821869475076467)
(97.57724169183089 0 -0.5106220054296442)
(97.56630366649722 0 -0.4771633483929033)
(97.53045507710046 0 -0.09244983743038254)
(97.622194601996 0 0.2019227477235087)
(97.57185635792138 0 -0.4050646510405286)
(97.53958918198038 0 -0.2668825204678785)
(97.56580310205534 0 -0.03524333562901814)
(97.60705131490948 0 -0.4449730760385614)
(97.65603864559327 0 0.2191732460422752)
(97.60063721545055 0 -0.4113904636144243)
(97.61294041478507 0 -0.4090373906140201)
(97.69555203969405 0 0.3039393535221327)
(97.59421294135633 0 -0.2612593035000078)
(97.76048099693008 0 0.4252244021072096)
(97.75886148848716 0 0.4258020624037507)
(97.62127025753813 0 -0.3156514538773521)
(97.62512430580492 0 -0.07057372834174895)
(97.71535945458579 0 0.2294897963500147)
(97.84930157063209 0 0.509791530174998)
(97.91755033237204 0 0.5924182527244923)
(97.90357753500857 0 0.5605098723323768)
(97.9118087443176 0 0.5563959898432741)
(97.73862197891182 0 0.1798309929166012)
(97.67856822607899 0 -0.02802475600520013)
(97.74824263542743 0 0.188963749618888)
(97.67196659934037 0 -0.08169191623758987)
(97.76058330149885 0 0.1865197460702606)
(98.00119428409886 0 0.5995051942628735)
(97.73533388753829 0 -0.3846585167243444)
(97.93988963820082 0 0.5173396067177376)
(97.78511264241062 0 0.1818546970464955)
(97.84610258513484 0 0.3713270580689987)
(98.02505854845016 0 0.5860346512131542)
(97.8054032297166 0 0.1676406374127582)
(97.74678542055371 0 -0.04098208243680845)
(97.82269228482463 0 0.2062731447363457)
(97.8895675000301 0 0.3780331369230521)
(98.03043375282634 0 0.5575123987466166)
(97.99265876945711 0 0.5033630544347835)
(97.84373213317129 0 -0.4533053940653825)
(97.91516244491909 0 0.3684367379005645)
(97.83134628476864 0 -0.3945669721013717)
(97.86010014081052 0 -0.4486634706705399)
(97.78202974443583 0 -0.1205452506696877)
(97.81801736345246 0 -0.3154951433407922)
(97.84158059277635 0 -0.3512849328444245)
(97.87084468364658 0 0.08426936066126117)
(97.8656775278329 0 0.06409115185365211)
(97.83680577040677 0 -0.2917019319098076)
(97.92325555590109 0 -0.510216123590692)
(97.85572901740348 0 0.004787401549900315)
(97.97724423409258 0 0.3548164992347739)
(97.94795580213794 0 -0.4909191627481851)
(97.95004724724838 0 0.2734986056238385)
(97.9265441691677 0 -0.4092409452894417)
(97.97659091625725 0 0.3241902628646575)
(97.93429677041156 0 -0.3971715858728369)
(98.0172306224428 0 0.3587814070007341)
(97.92028121918206 0 0.0388495321904992)
(97.95444239247003 0 0.1395570246795775)
(97.90979860503153 0 -0.007375720544535171)
(98.09611836203324 0 0.437711532098588)
(98.16505495450845 0 0.4908669574876949)
(97.97492143924191 0 0.09954955347877736)
(98.0801564373799 0 0.3896317587415693)
(97.98515904756199 0 0.1068563678325327)
(98.12183281801205 0 0.4230816702343123)
(98.09381738203066 0 0.3935164295453358)
(97.93002729391903 0 -0.1471948451624929)
(97.98196834161723 0 -0.3169123341262571)
(98.18588055501853 0 0.4529839216599523)
(98.0151054575592 0 0.1105740372856922)
(97.96844182157692 0 -0.0189636698849248)
(98.04065474193372 0 0.2433073000507608)
(98.09697583726499 0 0.3316469292263425)
(97.99140987568227 0 -0.002805009540814635)
(98.0040408060859 0 0.01360142771789931)
(97.989351030859 0 -0.03642541491062171)
(97.98009132248978 0 -0.141779876818064)
(98.2297780797486 0 0.4453995968192903)
(98.15648620301697 0 0.3681452801030689)
(98.00854218935758 0 -0.2283685301530279)
(98.06484690296625 0 0.1171541855837043)
(98.09480140710797 0 -0.368924709571734)
(98.00824449824755 0 -0.09182063475387355)
(98.1416233793104 0 0.3246505308065037)
(98.13145946237486 0 -0.4059728984621711)
(98.22442991001184 0 0.3886519760170281)
(98.07948611405861 0 0.05665574281897708)
(98.03216223004236 0 -0.08247642026280085)
(98.03290524470918 0 -0.1573121930515163)
(98.24696935916039 0 0.3939546202570265)
(98.08710569281671 0 -0.2826801424448638)
(98.13386073634311 0 0.2373437918790724)
(98.17350904176608 0 0.302462888488702)
(98.10819507958843 0 -0.2911949542014987)
(98.0621858661226 0 -0.2049219915440181)
(98.12290509758797 0 0.1767689267728464)
(98.16707456280382 0 0.2696400621802811)
(98.1194004565791 0 0.05791224411555903)
(98.06898824786393 0 -0.09360349395859688)
(98.1610336916916 0 0.2370690794088525)
(98.15052479193528 0 0.2097861585108217)
(98.18850894833231 0 0.2805198794961533)
(98.07947369723631 0 -0.1821063897067599)
(98.10505175309342 0 -0.001539304543068636)
(98.15256336286421 0 0.1833371324127674)
(98.08501661852166 0 -0.1045953653442253)
(98.28206369960164 0 0.3480984801699356)
(98.09798138589063 0 -0.03642003014804485)
(98.11079144582418 0 -0.2095705870660677)
(98.09517279864053 0 -0.1414164407821178)
(98.18218320683627 0 -0.2989678125258461)
(98.15097536274527 0 0.1098196993118864)
(98.27992751531863 0 0.3278751397693214)
(98.17028177092695 0 -0.278528998608171)
(98.197279925231 0 -0.3038581747896653)
(98.1140973234609 0 -0.1877749184415706)
(98.15612565560491 0 0.1049192081778245)
(98.31688372571338 0 0.3386551429626333)
(98.17359695960971 0 -0.2622314405259532)
(98.15704016885962 0 0.0592145320608486)
(98.16448778694556 0 0.1503566387037241)
(98.2047652807115 0 0.2387120843682733)
(98.12871632711948 0 -0.004914608748052947)
(98.18149773769348 0 -0.2580564708699905)
(98.21031404773628 0 0.2499697004399151)
(98.16175764474177 0 0.1326314830251768)
(98.12970487550871 0 -0.1921288219679769)
(98.21540288609665 0 0.2514592268282624)
(98.10342792510659 0 -0.1545791488885006)
(98.12712673453896 0 4.124673125142485e-05)
(98.11558986517555 0 -0.03449304991458874)
(98.09926853216595 0 -0.1292457679992011)
(98.17924847076705 0 0.2060283412519845)
(98.10518321369931 0 -0.04508809834471876)
(98.09979607196824 0 -0.06151942843296838)
(98.23369815411201 0 0.2581238466760373)
(98.1382975634163 0 0.106926077182816)
(98.13155146956761 0 0.08966786657456102)
(98.12613109002842 0 -0.1944243470955195)
(98.15283053673711 0 0.1837986568344235)
(98.14973671462685 0 0.1786334431113225)
(98.11983378026086 0 0.1068294413872911)
(98.20510249529943 0 0.2430624835009145)
(98.20636365784738 0 0.2447634959335383)
(98.15925956340401 0 -0.2401728212953491)
(98.05935600276207 0 -0.08282514019590029)
(98.07519653837515 0 0.002310581330451126)
(98.05323541757723 0 -0.1476288717337818)
(98.08058489023097 0 0.09438605342326295)
(98.14782579434497 0 -0.2414136904639689)
(98.20912086004871 0 0.2534626108131366)
(98.14432305473557 0 -0.2448560107769951)
(98.05442141511591 0 0.03421844026768305)
(98.15156434754432 0 0.2289256353973139)
(98.00322326281363 0 -0.1033109041758358)
(98.06425350528333 0 0.1573433354883085)
(98.09075069770576 0 -0.2186746356558046)
(98.0392910707952 0 0.1561255699322811)
(98.04002436330141 0 0.1744314625502151)
(98.07545032733036 0 0.2024652999824719)
(98.03348269829445 0 0.1769615196792195)
(98.01538103025004 0 0.1737046845802437)
(97.98601760919578 0 0.1362622723307058)
(97.92020763037269 0 -0.107736873953693)
(97.9353233235272 0 -0.1397548167839125)
(98.04130215836905 0 0.2010849245265915)
(97.92207412777182 0 0.02003487648470751)
(97.95066901710962 0 -0.1714511764942726)
(97.90812855675928 0 0.08167221419388258)
(97.88954431372335 0 0.02703440125157028)
(97.8577800908013 0 -0.07919047964053187)
(97.90619618270013 0 0.1662321614622733)
(97.93082206180917 0 -0.1967015459482218)
(97.9056068289018 0 -0.1851295591127297)
(97.80440540707013 0 -0.04238528955943505)
(97.82497023229419 0 0.05072118835244651)
(97.76943113412362 0 -0.06756417660860996)
(97.77383830106814 0 0.02748322363003268)
(97.75924246162491 0 0.03417244019630448)
(97.72258936013974 0 -0.06942009452646894)
(97.72807929649314 0 -0.03007504472672277)
(97.83277783125305 0 0.1814738031083221)
(97.70499464640893 0 -0.1297897807287241)
(97.70507535707569 0 0.1427791585841851)
(97.65623207552187 0 0.00140275614300772)
(97.64655728145395 0 -0.01558329983138534)
(97.60705460017296 0 -0.03892732859431892)
(97.64909863463784 0 -0.1444850405567515)
(97.60713736996013 0 0.1296174318437228)
(97.56409393459614 0 0.007226511669282176)
(97.59394418210802 0 -0.1306024857504639)
(97.5959939652689 0 -0.1502701207647061)
(97.59830684544866 0 -0.168746787027871)
(97.58024092793518 0 0.1576464422735013)
(97.43699016824655 0 -0.08745813936021309)
(97.48905989188096 0 -0.1246570352715946)
(97.45415406271832 0 -0.1252487573731815)
(97.40767401769345 0 0.112685735283567)
(97.35820572669608 0 0.01471056009284409)
(97.41791966173963 0 -0.1390914633680805)
(97.31931484603582 0 -0.07216995672778329)
(97.36903480182399 0 -0.1366059641370534)
(97.25859819490449 0 -0.1006137262787167)
(97.25070463145572 0 -0.1072702280246879)
(97.23579367305942 0 0.0735686072038659)
(97.20928221556554 0 0.007971575251970611)
(97.18642173015866 0 0.1094008916132792)
(97.14528588269197 0 0.08713294323858695)
(97.09175827309313 0 -0.01640100559173068)
(97.09175762877794 0 0.04921571085436643)
(97.09425475082084 0 0.09105382862299037)
(97.09143891274159 0 -0.1237222292767154)
(96.96853481601151 0 -0.04220416145738067)
(96.93711527858032 0 -0.0445656223484175)
(97.01651066073619 0 0.1274671839251339)
(96.97476480132833 0 -0.1120100521128687)
(96.9021777026814 0 0.1126280835320222)
(96.81767504743658 0 0.001789274801576458)
(96.81770022638726 0 -0.1004439261954403)
(96.77815589559289 0 0.04346629817003667)
(96.77282077674182 0 -0.09346901042038458)
(96.71767139563416 0 0.06735054892160817)
(96.74382151468646 0 0.122584886361959)
(96.63640795427902 0 0.07820589175386963)
(96.58046383979088 0 -0.08277108730625826)
(96.60422220355309 0 0.06370722196694209)
(96.59355872784597 0 0.1145743761875937)
(96.46357439008943 0 -0.02280725655662276)
(96.43116495152383 0 0.001035717825079437)
(96.43349819851831 0 0.09774181191100184)
(96.39302312067912 0 -0.03201292452206249)
(96.31560621729179 0 -0.06357016411196129)
(96.26593043140004 0 -0.04045178775704197)
(96.24171825127171 0 0.02640408093824146)
(96.27901075345298 0 0.1086948802980654)
(96.19244785061429 0 -0.04212245591243913)
(96.13729053466014 0 -0.08528651337569003)
(96.08750117293023 0 0.06607647130148633)
(96.02190995777798 0 0.002846182090549849)
(96.0624088420727 0 0.1048176673488018)
(95.99709906812419 0 -0.0835484416420033)
(95.91519093013623 0 0.02899442861388755)
(95.83559438484404 0 -0.03977361524606602)
(95.79043677537977 0 -0.03532911573727907)
(95.78060667583338 0 0.03832120491026631)
(95.81661004210596 0 -0.09577930821816182)
(95.67724449784889 0 0.02753069515972343)
(95.61642952374845 0 0.04089450076396856)
(95.59746299463377 0 -0.08936584553462038)
(95.51234703140899 0 -0.04024492568384075)
(95.48475934777009 0 -0.03600400201999165)
(95.42042208241085 0 0.07300646870550485)
(95.32864508052957 0 -0.005208926742266582)
(95.28259242744392 0 0.02148105638714077)
(95.24823696328171 0 -0.01692102157385153)
(95.23592216112587 0 -0.03094231067921275)
(95.13782528992726 0 -0.03858370256204943)
(95.08469325724261 0 0.04120707736069247)
(95.03257674642077 0 0.05233879129316587)
(94.97016154327133 0 -0.0437206635849219)
(94.95833815045889 0 0.009789528218097312)
(94.86895111816246 0 0.02189665285372468)
(94.78223960643678 0 -0.01999308067079897)
(94.74006630969392 0 0.07203343359783786)
(94.6817367571051 0 0.003993307672497915)
(94.69394764726674 0 0.06460457216536945)
(94.60068379446965 0 -0.07538076991946055)
(94.57638041743023 0 -0.09448351054244593)
(94.40118596207537 0 -0.06461602847187302)
(94.46617426527608 0 -0.09053910296909365)
(94.35930468185349 0 -0.01578828933182212)
(94.22392662048257 0 -0.05371885838250055)
(94.20896296728317 0 -0.07882550453087668)
(94.07504076831745 0 -0.001936353729523538)
(94.05772454246883 0 -0.06876331658871773)
(94.07805677671112 0 -0.0764962961725868)
(93.90577987882659 0 0.03122695079998817)
(93.8865837625365 0 -0.08669032104284642)
(93.76045646760402 0 -0.07177450200281546)
(93.7511520230009 0 0.08154253084482461)
(93.66929191782629 0 0.03356083103737576)
(93.51659350666785 0 -0.015111327893664)
(93.40594495581837 0 -0.01652337487842622)
(93.34325210845371 0 0.04230350973288009)
(93.29203291529434 0 0.03504466014663606)
(93.30724866445263 0 -0.06984751050899698)
(93.10948849797813 0 -0.02323077404149844)
(92.97695976224796 0 -0.04698097300059739)
(92.93936943044541 0 0.06978324196781675)
(92.85018307997656 0 -0.006737573291953092)
(92.85107856876984 0 0.04416834670571845)
(92.67196824896054 0 -0.01654090799378655)
(92.52466320987972 0 -0.04826167986675502)
(92.51099953347915 0 0.07109708103174911)
(92.40795849634897 0 0.04236746295731727)
(92.36782312286455 0 -0.02998194360094044)
(92.17396357697059 0 -0.05139234746879275)
(92.07164151676697 0 0.03299543573095918)
(91.94870063410393 0 -0.0319272171522793)
(91.88331818290926 0 0.001017334223648985)
(91.95822923211534 0 -0.07309389165987722)
(91.67563343411298 0 -0.004039047643266977)
(91.5206155878941 0 -0.001344248092425382)
(91.45198527617565 0 0.0624649777843212)
(91.35292490725557 0 0.01804146672984858)
(91.31726361579398 0 -0.03483975222729879)
(91.13770498545125 0 -0.05440262071575088)
(90.97732644178213 0 -0.0545682779284391)
(90.82254261104775 0 -0.001081240666932698)
(90.7641028193064 0 -0.05128098481061101)
(90.72837347952593 0 -0.006001993579339739)
(90.51955463212131 0 0.02547446780941341)
(90.32317872269937 0 -0.007141658023208486)
(90.25180439339539 0 -0.05702849311976881)
(90.11779006979337 0 0.05061990971412426)
(90.09101870683516 0 0.01767718771038987)
(89.85383502625329 0 0.02453070550884933)
(89.64546189844685 0 0.05026023733228113)
(89.49546582716552 0 -0.004768936380304618)
(89.41429010403969 0 -0.01541559825015911)
(89.39425781713581 0 0.02280244196851368)
(89.12947204119249 0 0.03635157818783608)
(88.90094963588336 0 -0.01982815743464671)
(88.75669580851041 0 0.02433018842896999)
(88.6602589791142 0 0.02312454563547233)
(88.62840696807402 0 0.03523007626976771)
(88.30574556235702 0 -0.04299955597002552)
(88.08209908626138 0 -0.02647987440053328)
(87.92520533666836 0 0.03876091896007799)
(87.81205399858014 0 -0.01352191620039402)
(87.74725884494582 0 -0.04039612318448906)
(87.46265869896074 0 0.01915204377053879)
(87.24920310943357 0 -0.04929333163763735)
(87.01940562519438 0 0.02070824621831696)
(86.89380685829522 0 0.04615235985373574)
(86.86357217375355 0 0.02062715318098774)
(86.49091320735343 0 0.005471971862853191)
(86.21116866219735 0 -0.02863441970674801)
(86.07865981388157 0 -0.05044343673531879)
(85.88680036542326 0 -0.0160432506671879)
(85.90118015141988 0 -0.0490908036058381)
(85.45168378799309 0 0.007146247611741049)
(85.17727488717196 0 0.04512453363839912)
(84.93823799217509 0 0.04358474718066919)
(84.77748284474289 0 -0.02015245283400852)
(84.72912253190127 0 -0.0135369163273333)
(84.36507336959556 0 -0.04749797697763174)
(83.98218996314213 0 0.04169245726157896)
(83.71453057905032 0 0.009919791183865547)
(83.56842192770844 0 0.02102924607452183)
(83.52104613124857 0 0.04108312078485921)
(83.04294325627468 0 0.02055561161409867)
(82.64251749367713 0 -0.03243481427214304)
(82.37500174059019 0 -0.03313672834958131)
(82.20709650637085 0 -0.002099300405490518)
(82.14454574165936 0 -0.005180030817067634)
(81.62744515474736 0 -0.03260982246047642)
(81.20700620807725 0 -0.008577665886923113)
(80.90662510613035 0 0.01593783473494302)
(80.72879677598252 0 -0.03309134755187828)
(80.67054291576966 0 0.03711498743223769)
(80.07275549341257 0 0.0315317264793959)
(79.63924866137309 0 -0.03623189552195118)
(79.28147244411825 0 -0.03213899398186366)
(79.05586236333029 0 0.02829301963149962)
(78.99870615355614 0 -0.03381933136467102)
(78.3431827668896 0 -0.02956307601219131)
(77.80840297948654 0 0.009774021668049006)
(77.41990249576567 0 -0.02478315272717149)
(77.23315348925883 0 -0.03152419477023864)
(77.08466471279087 0 0.002709432305560045)
(76.37933103205134 0 -0.01523151608585409)
(75.79868068518672 0 0.004795558637852776)
(75.3864377661222 0 -0.02214362199425177)
(75.11251326856028 0 -0.007547907877265398)
(75.0063436019272 0 -0.00783971976030862)
(74.20075903402392 0 0.003883311409634308)
(73.56096343514723 0 0.01643546164314681)
(73.08019638491602 0 0.009548888444421883)
(72.78667163330432 0 0.01170283659239392)
(72.65787188489904 0 0.004349839392520249)
(71.75704958963438 0 -0.002222565161419304)
(71.02856371319837 0 -0.01199636379250407)
(70.48427060779562 0 0.003621421262123631)
(70.15085154595606 0 0.003078178471934132)
)


// ************************************************************************* //
