/*--------------------------------*- C++ -*----------------------------------*\
| =========                 |                                                 |
| \\      /  F ield         | OpenFOAM: The Open Source CFD Toolbox           |
|  \\    /   O peration     | Version:  v1912                                 |
|   \\  /    A nd           | Website:  www.openfoam.com                      |
|    \\/     M anipulation  |                                                 |
\*---------------------------------------------------------------------------*/
FoamFile
{
    version     2.0;
    format      ascii;
    class       scalarField;
    location    "0.001/lagrangian/iceFoamCloud";
    object      age;
}
// * * * * * * * * * * * * * * * * * * * * * * * * * * * * * * * * * * * * * //


136
(
0.001017857142857142
0.001004464285714285
0.001002186588921282
0.0009871537900874631
0.0009844735236287203
0.0009720433023707819
0.0009645851696160184
0.0009651226926974429
0.0009510127118100537
0.00094254672327762
0.0009428994727998047
0.000930398911607383
0.0009214699393270818
0.0009161125559589012
0.0009173881234275153
0.0009035482163930488
0.0008936625685112867
0.0008877311797822295
0.000889708309358582
0.0008768965097038183
0.0008669317766390022
0.000859814110164133
0.0008555435102792124
0.0008575093419722714
0.0008434773709218155
0.0008325636156603506
0.0008247680761878755
0.0008200907525043905
0.0008228624998723816
0.0008096293310147849
0.0007988021928585692
0.0007903810854037349
0.0007843660086502819
0.0007807569625982099
0.0007795539472475194
0.0007663207783899224
0.000755493640233707
0.0007470725327788727
0.0007410574560254196
0.0007374484099733476
0.0007362453946226571
0.0007230122257650602
0.0007121850876088446
0.0007037639801540103
0.0006977489034005573
0.0006941398573484855
0.0006929368419977947
0.0006797036731401981
0.0006688765349839826
0.0006604554275291483
0.0006544403507756952
0.0006508313047236233
0.0006496282893729328
0.0006363951205153361
0.0006255679823591206
0.000617146874904286
0.0006111317981508331
0.0006075227520987612
0.0006063197367480704
0.0005930865678904737
0.0005822594297342584
0.0005738383222794239
0.0005678232455259709
0.000564214199473899
0.0005630111841232085
0.0005497780152656118
0.0005389508771093962
0.0005305297696545619
0.0005245146929011088
0.000520905646849037
0.0005197026314983465
0.0005064694626407498
0.0004956423244845341
0.0004872212170296999
0.0004812061402762468
0.000477597094224175
0.0004763940788734842
0.0004631609100158875
0.0004523337718596718
0.0004439126644048375
0.0004378975876513844
0.0004342885415993127
0.000433085526248622
0.0004198523573910254
0.0004090252192348096
0.0004006041117799753
0.0003945890350265223
0.0003909799889744505
0.0003897769736237599
0.0003765438047661631
0.0003657166666099476
0.0003572955591551132
0.0003512804824016602
0.0003476714363495883
0.0003464684209988976
0.0003332352521413008
0.0003224081139850854
0.000313987006530251
0.0003079719297767979
0.0003043628837247261
0.0003031598683740354
0.0002899266995164387
0.000279099561360223
0.0002706784539053888
0.0002646633771519357
0.0002610543310998639
0.0002598513157491734
0.0002466181468915766
0.0002357910087353609
0.0002273699012805266
0.0002213548245270736
0.0002177457784750017
0.0002165427631243112
0.0002033095942667144
0.0001924824561104988
0.0001840613486556644
0.0001780462719022114
0.0001744372258501394
0.0001732342104994487
0.000160001041641852
0.0001491739034856365
0.0001407527960308021
0.0001347377192773491
0.0001311286732252772
0.0001299256578745865
0.0001166924890169898
0.0001058653508607742
9.744424340593993e-05
9.142916665248689e-05
8.782012060041505e-05
8.66171052497245e-05
7.338393639212776e-05
6.255679823591209e-05
5.413569078107781e-05
4.812061402762468e-05
4.45115679755529e-05
)


// ************************************************************************* //
