/*--------------------------------*- C++ -*----------------------------------*\
| =========                 |                                                 |
| \\      /  F ield         | OpenFOAM: The Open Source CFD Toolbox           |
|  \\    /   O peration     | Version:  v1912                                 |
|   \\  /    A nd           | Website:  www.openfoam.com                      |
|    \\/     M anipulation  |                                                 |
\*---------------------------------------------------------------------------*/
FoamFile
{
    version     2.0;
    format      ascii;
    class       Cloud<basicReactingMultiphaseParcel>;
    location    "0.001/lagrangian/iceFoamCloud";
    object      coordinates;
}
// * * * * * * * * * * * * * * * * * * * * * * * * * * * * * * * * * * * * * //

136
(
(0.4004446097732091 0.2997776951133955 0.01633221724769236 0.2834454778657032) 10380 20691 2
(0.2671041644704729 0.2849538920631993 0.08149402570156425 0.3664479177647635) 10380 20691 1
(0.2876034617639067 0.3561982691180466 0.2039132492731676 0.1522850198448791) 10380 20691 2
(0.2040700524956317 0.3008976013987034 0.09706737235348074 0.3979649737521842) 2380 4811 1
(0.200677098959079 0.3996614505204604 0.118742705743265 0.2809187447771955) 10380 20691 2
(0.1182122404923543 0.3190689019950862 0.1218249777587366 0.4408938797538227) 2380 4811 1
(0.1220694592888224 0.03278373960407754 0.4061815307515113 0.4389652703555888) 2380 4811 1
(0.0699042337941671 0.4650478831029166 0.2895697629926723 0.1754781201102441) 10380 20691 2
(0.08898993079368681 0.2683910349483666 0.4555050346031566 0.18711399965479) 10301 20592 1
(0.1652569220933264 0.4173715389533368 0.03105483761073635 0.3863167013426004) 2301 4652 2
(0.13365038285394 0.43317480857303 0.1122072939472938 0.3209675146257363) 2301 4652 2
(0.1384747528671593 0.4155418841132721 0.4307626235664202 0.01522073945314817) 2381 4811 1
(0.2528942246506514 9.08759819428377e-05 0.3735528876746742 0.3734620116927317) 10381 20691 1
(0.2221994639791206 0.3889002680104398 0.2806218582565569 0.1082784097538828) 2301 4652 2
(0.1492517155955388 0.02259508384853296 0.4253741422022306 0.4027790583536977) 2381 4811 1
(0.3087056637963317 0.3456471681018342 0.1161255484960282 0.229521619605806) 2381 4811 2
(0.3856580853312355 0.3071709573343824 0.1773025540626109 0.1298684032717713) 2301 4652 2
(0.3543147757819728 0.3228426121090136 0.2831000572984349 0.03974255481057869) 10381 4814 2
(0.3780046637102749 0.3109976681448626 0.2594193166836211 0.05157835146124149) 2301 4652 2
(0.4482879359323965 0.2758560320338018 0.2622487855726144 0.01360724646118739) 2301 4652 2
(0.5200365974991101 0.1226306164786643 0.2399817012504449 0.1173510847717807) 10381 20691 1
(0.2094958616306149 0.3952520691846926 0.2640593276830459 0.1311927415016467) 2381 4655 2
(0.5403898013269841 0.229805099336508 0.1937529500233492 0.03605214931315869) 10381 20691 2
(0.5296558275931419 0.2351720862034291 0.1938877754868889 0.04128431071654004) 10381 20691 2
(0.04045850171083562 0.4797707491445822 0.2574654822578757 0.2223052668867066) 2301 4655 2
(0.6894433096100763 0.1552783451949619 0.04331870137070979 0.111959643824252) 2381 4811 2
(0.4555581274419271 0.2722209362790365 0.1120409376049547 0.1601799986740817) 10381 4814 2
(0.1136296597277576 0.2967186568811263 0.4431851701361211 0.1464665132549949) 10381 20595 1
(0.3610041490899261 0.1966948396424874 0.1228030858125496 0.3194979254550369) 10301 20595 1
(0.1972265773524143 0.2993890207947396 0.1019976905290533 0.4013867113237929) 10301 20595 1
(0.1940404541764742 0.3305737401011405 0.07240603281062243 0.4029797729117628) 10301 20595 1
(0.2530719672575394 0.3734640163712303 0.009397418010609912 0.3640665983606203) 10381 4814 2
(0.7061773095226357 0.1469113452386822 0.1330057434555635 0.01390560178311863) 2381 4814 2
(0.3036935687540948 0.3328910818331327 0.3481532156229525 0.0152621337898201) 10381 4814 1
(0.9583707152800223 0.02081464235998893 0.009235292049781239 0.01157935031020742) 2381 4814 2
(0.3036936170627112 0.2933321917690089 0.3481531914686444 0.05482099969963564) 10381 4814 1
(0.5543947212186542 0.2228026393906729 0.1413447039105929 0.08145793548007996) 10301 20595 2
(0.4366882055203745 0.201456675876497 0.08019922136331589 0.2816558972398127) 2301 4655 1
(0.07049930158356423 0.464750349208218 0.389951368079538 0.07479898112867989) 10301 20595 2
(0.3036937137454533 0.2141607674729748 0.3481531431272734 0.1339923756542985) 10381 4814 1
(0.7453805254906539 0.1273097372546732 0.1035017740512797 0.02380796320339324) 10381 20595 2
(0.5449025268480479 0.2275487365759762 0.05793044090237593 0.1696182956736001) 10301 20595 2
(0.2530722287351033 0.1687430647031632 0.3734638856324484 0.2047208209292852) 10381 4814 1
(0.5893481253710487 0.2053259373144757 0.0815015850340432 0.1238243522804323) 2381 4813 2
(0.4555585528601626 0.03589600396069625 0.2722207235699186 0.2363247196092225) 10381 4814 1
(0.5678454831492902 0.2160772584253551 0.04286645019388627 0.1732108082314686) 10381 20692 2
(0.4295499464043154 0.2852250267978425 0.04445446557551264 0.2407705612223296) 10301 20595 2
(0.1059536949525625 0.4470231525237187 0.201410679785118 0.2456124727386006) 10301 20595 2
(0.3239179221761561 0.338041038911922 0.2767276285910154 0.06131341032090656) 2301 4654 2
(0.3835483937122741 0.308225803143863 0.1373593313247285 0.1708664718191343) 10381 20692 2
(0.3074749322561118 0.3462625338719441 0.1275220332959532 0.2187405005759909) 2301 4654 2
(0.2259018170651786 0.3870490914674108 0.3219742557880623 0.06507483567934844) 2301 4654 2
(0.3230891897256705 0.2690628651123914 0.06939254002477351 0.3384554051371647) 2381 4813 1
(0.1394152224709948 0.07578437459036823 0.3545080141741344 0.4302923887645025) 2301 4655 1
(0.1930325210018296 0.4034837394990853 0.07582072385932673 0.3276630156397585) 2301 4654 2
(0.06592985841429456 0.4670350707928526 0.01704540697665436 0.4499896638161985) 2381 4813 2
(0.04089449194107182 0.4795527540294642 0.07839671396291685 0.4011560400665472) 2381 4813 2
(0.02504033208622546 0.06558364656552626 0.4218961873913611 0.4874798339568873) 2301 4655 1
(0.09083727817800015 0.322931487751302 0.4545813609109999 0.131649873159698) 2302 4654 1
(0.03158184977810521 0.4842090751109474 0.2546118585517941 0.2295972165591533) 2382 4813 2
(0.03522646888764167 0.4823867655561793 0.190211730281673 0.2921750352745061) 10382 20692 2
(0.2441956753764701 0.2785769207917322 0.3779021623117648 0.09932524152003271) 2302 4654 1
(0.1362848169687436 0.3987977440914706 0.4318575915156282 0.03305984742415762) 10382 20692 1
(0.2053007886279914 0.3973496056860045 0.134298471842575 0.2630511338434293) 2302 4654 2
(0.1419946572427025 0.4290026713786488 0.1148694553754863 0.3141332160031624) 10382 20692 2
(0.2675456872993426 0.3662271563503287 0.1629443328818903 0.2032828234684383) 2302 4654 2
(0.2470190660987325 0.3764904669506338 0.2368838381674983 0.1396066287831355) 10382 20692 2
(0.2877918376940631 0.3561040811529685 0.03685332849821266 0.3192507526547557) 2382 4816 2
(0.2405872811449844 0.3797063594275077 0.3009988873099441 0.07870747211756379) 10382 4816 2
(0.3913724415621856 0.3043137792189072 0.2345104525133498 0.0698033267055575) 2382 4813 2
(0.006505530024627588 0.1540589187921137 0.3426883161955726 0.4967472349876862) 10302 20597 1
(0.4082413178183941 0.02579742729950486 0.2700819137912981 0.295879341090803) 10302 20597 1
(0.04809092380334139 0.4759545380983293 0.2220601561410777 0.2538943819572516) 10382 4816 2
(0.2429361628624892 0.1230266598556365 0.3785319185687554 0.255505258713119) 10382 20597 1
(0.09621507887540574 0.4518924605622972 0.187754201074554 0.2641382594877431) 10382 4816 2
(0.00452768030231352 0.2599180589894211 0.4977361598488433 0.2378181008594221) 10382 20597 1
(0.1975210540029413 0.1716283896858478 0.4012394729985293 0.2296110833126816) 10382 20597 1
(0.6198580650333027 0.03420114032343508 0.1900709674833488 0.1558698271599135) 2382 4813 1
(0.2849473563363392 0.3575263218318304 0.1986501084272834 0.158876213404547) 2302 4657 2
(0.2902809311209616 0.2288392758985845 0.1260202585409346 0.3548595344395192) 10302 20597 1
(0.1443393202760554 0.4278303398619723 0.0824794402653805 0.3453508995965918) 10382 4816 2
(0.5755502054194888 0.2122248972902557 0.1206022407294676 0.09162265656078802) 2382 4816 2
(0.8053133453786392 0.05587585999830352 0.09734332731068036 0.04146746731237692) 10382 20692 1
(0.5007368857171546 0.1677166974218232 0.2496315571414227 0.08191485971959958) 10382 20597 1
(0.4796305781564007 0.2601847109217997 0.234035525524996 0.02614918539680362) 2382 4816 2
(0.3837110007408645 0.3081444996295679 0.3063498070061886 0.00179469262337921) 2382 4816 2
(0.6714696406585501 0.1629617158778909 0.00130346379283409 0.164265179670725) 2382 4816 1
(0.7043893859299835 0.1478053070350082 0.01252685178668509 0.1352784552483232) 2382 4657 2
(0.3774192639791257 0.3112903680104371 0.2961035234628498 0.01518684454758733) 10302 20597 2
(0.1742539703907526 0.4128730148046238 0.01474264570152264 0.3981303691031011) 10382 20597 2
(0.182385971924111 0.3769663252908964 0.4088070140379444 0.03184068874704817) 2382 4657 1
(0.2405877805562513 0.2701501257762611 0.3797061097218744 0.1095559839456133) 10382 4816 1
(0.7350699924000895 0.1324650037999552 0.01373004112974562 0.1187349626702097) 2302 4656 2
(0.7961224758225219 0.1010504127361494 0.0008883493525896303 0.1019387620887391) 2382 4815 1
(0.4224714209321249 0.2887642895339376 0.09380735365309245 0.194956935880845) 10382 20597 2
(0.588250655186266 0.1811575613962767 0.02471711101059042 0.205874672406867) 2302 4656 1
(0.1068513783309628 0.4465743108345187 0.296444401597196 0.1501299092373226) 10302 20597 2
(0.09595209193408012 0.2351116238954063 0.2169123301375536 0.45202395403296) 2382 4816 1
(0.6027405535094507 0.1986297232452746 0.1736739822217114 0.0249557410235633) 2382 4815 2
(0.5813288585192383 0.01856099782235672 0.2093355707403808 0.1907745729180241) 2382 4657 1
(0.2033002322620044 0.3983498838689978 0.1931849611708774 0.2051649226981203) 10302 20597 2
(0.2432728924422575 0.1495546812862217 0.2288088724926496 0.3783635537788712) 2302 4657 1
(0.4656655064096775 0.2671672467951613 0.2219598816957916 0.04520736509936966) 10382 20693 2
(0.4406068384560277 0.2796965807719862 0.2726880968626295 0.007008483909356696) 10382 20597 2
(0.3379192967951052 0.03457738721764345 0.2964629643848039 0.3310403516024474) 2302 4657 1
(0.2554322102956552 0.09100104104184137 0.3722838948521724 0.281282853810331) 2382 4657 1
(0.3527867495597771 0.1797992894626328 0.1438073357574785 0.3236066252201114) 10382 20693 1
(0.3314927312714848 0.3342536343642577 0.1500851470920772 0.1841684872721804) 10382 20693 2
(0.04799209641177811 0.07631417272294194 0.399689779071169 0.476003951794111) 2382 4816 1
(0.2334313066388596 0.3662441260416652 0.01704022063890503 0.3832843466805701) 2382 4815 1
(0.2041582479185964 0.3979208760407018 0.3091668258794119 0.08875405016128993) 10382 20693 2
(0.1762495228372987 0.4064869815103075 0.005388257071043131 0.4118752385813507) 10382 20693 1
(0.2020832789861456 0.3989583605069273 0.1461067215332637 0.2528516389736635) 10382 20693 2
(0.1671184588261239 0.09650435980816127 0.3199364107787768 0.4164407705869381) 2382 4815 1
(0.03241684328014529 0.4837915783599274 0.1945086982894526 0.2892828800704746) 2382 4815 2
(0.01619998396872638 0.4141250375336983 0.07777497048193861 0.4919000080156368) 10382 20693 1
(0.0175091262748239 0.4302429617902525 0.06100247507233563 0.491245436862588) 2382 4815 1
(0.007666849348255469 0.08007192727358212 0.4160946480522902 0.4961665753258723) 10302 20596 1
(0.03479339122716235 0.4826033043864188 0.1733060810884359 0.3092972232979829) 2383 4815 2
(0.008578144952815118 0.06119813425112518 0.4957109275235925 0.4345127932724672) 2383 4815 1
(0.08403381082650992 0.2580605958948669 0.457983094586745 0.1999224986918783) 2383 4815 1
(0.1938920423730797 0.4030539788134602 0.2046174142231861 0.1984365645902741) 2303 4656 2
(0.2145877121207946 0.0775625966066735 0.3927061439396027 0.3151435473329292) 10383 20693 1
(0.1056872983430827 0.02670969939697411 0.4204466514314846 0.4471563508284586) 10303 20599 1
(0.2090745496797305 0.3954627251601347 0.279787251794586 0.1156754733655489) 2303 4656 2
(0.3090527151047949 0.3454736424476026 0.1595778375127586 0.185895804934844) 2303 4656 2
(0.2301190699027386 0.3849404650486307 0.3833210933714284 0.001619371677202316) 2383 4659 2
(0.3630317565310719 0.001474023632477322 0.318484121734464 0.3170100981019867) 10383 20693 1
(0.3378947585813234 0.01342608025760086 0.3176265404517375 0.3310526207093382) 10303 20599 1
(0.3650458873693017 0.3174770563153492 0.3109553944114434 0.006521661903905813) 2303 4656 2
(0.0457117929295718 0.4771441035352141 0.2869805153171126 0.1901635882181015) 10383 4818 2
(0.4349558765870438 0.1521780252120255 0.2825220617064781 0.1303440364944527) 10383 20693 1
(0.4333864377820806 0.2833067811089597 0.2448165836569204 0.03849019745203947) 10383 20693 2
(0.4103855598349098 0.2948072200825452 0.05658155238116228 0.2382256677013828) 2383 4818 2
(0.4175749626528736 0.2912125186735632 0.05388102030258938 0.2373314983709739) 2303 4659 2
(0.3744886665794158 0.06011913853784084 0.3127556667102921 0.2526365281724511) 10383 20599 1
)


// ************************************************************************* //
