/*--------------------------------*- C++ -*----------------------------------*\
| =========                 |                                                 |
| \\      /  F ield         | OpenFOAM: The Open Source CFD Toolbox           |
|  \\    /   O peration     | Version:  v1912                                 |
|   \\  /    A nd           | Website:  www.openfoam.com                      |
|    \\/     M anipulation  |                                                 |
\*---------------------------------------------------------------------------*/
FoamFile
{
    version     2.0;
    format      ascii;
    class       Cloud<basicReactingMultiphaseParcel>;
    location    "0.001/lagrangian/iceFoamCloud";
    object      positions;
}
// * * * * * * * * * * * * * * * * * * * * * * * * * * * * * * * * * * * * * //

136
(
(-0.671015845363471 -0.05000000000000001 0.06000000000000002) 10380
(-0.6723126055274257 -0.05 0.03200000000000002) 10380
(-0.6725340185936048 -0.05 0.05) 10380
(-0.6739866146829414 -0.05000000000000001 -0.04600000000000001) 2380
(-0.6742474469301389 -0.05 0.06) 10380
(-0.6754460419140478 -0.04999999999999999 -0.04799999999999999) 2380
(-0.676166077482268 -0.05 -0.07000000000000003) 2380
(-0.6761171455593308 -0.05 0.05200000000000001) 10380
(-0.6774742498637784 -0.05000000000000001 0.1) 10301
(-0.6782903760116623 -0.05 -0.112) 2301
(-0.6782582685009048 -0.05000000000000002 -0.106) 2301
(-0.6794580514050182 -0.04999999999999999 -0.04) 2381
(-0.6803155500150152 -0.05 0.01000000000000001) 10381
(-0.6808297057038817 -0.05000000000000001 -0.09400000000000007) 2301
(-0.6807105884529314 -0.05 -0.07000000000000003) 2381
(-0.6820344315943973 -0.05000000000000002 -0.03) 2381
(-0.6829794196122777 -0.05 -0.102) 2301
(-0.6835486286861067 -0.05 0.014) 10381
(-0.6833633057055863 -0.05000000000000001 -0.09600000000000003) 2301
(-0.6845839147379051 -0.05 -0.09600000000000004) 2301
(-0.6855335249725523 -0.05000000000000001 0.03000000000000001) 10381
(-0.6862136339110209 -0.05000000000000002 -0.07000000000000002) 2381
(-0.6866216277671868 -0.05 0.054) 10381
(-0.6864366557585991 -0.05 0.054) 10381
(-0.6877679207043669 -0.05000000000000002 -0.08000000000000002) 2301
(-0.6888055552147599 -0.05 -0.036) 2381
(-0.6895450589046456 -0.05 0.018) 10381
(-0.6899909719980319 -0.05 0.07400000000000001) 10381
(-0.6897327798584522 -0.05 0.09200000000000004) 10301
(-0.690980839978109 -0.05000000000000001 0.08600000000000002) 10301
(-0.6920030805569155 -0.05 0.08600000000000001) 10301
(-0.6927996475267562 -0.05 0.01000000000000001) 10381
(-0.6933690069486688 -0.05 -0.028) 2381
(-0.6937110997159305 -0.05 0.01200000000000002) 10381
(-0.6938252354913546 -0.05 -0.03799999999999999) 2381
(-0.6950672680029268 -0.05 0.01200000000000001) 10381
(-0.6960831678072184 -0.05 0.1) 10301
(-0.696875003472828 -0.05 -0.09600000000000003) 2301
(-0.6974411550041495 -0.05 0.08200000000000002) 10301
(-0.6977814436204068 -0.05 0.01200000000000001) 10381
(-0.6978947763533722 -0.05 0.05000000000000001) 10381
(-0.6991286578061072 -0.05 0.1) 10301
(-0.7001401098640688 -0.05000000000000001 0.01000000000000001) 10381
(-0.7009262508303779 -0.05 -0.03) 2381
(-0.7014878293993703 -0.05 0.018) 10381
(-0.7018270474679987 -0.05 0.05400000000000001) 10381
(-0.7019394983797149 -0.05 0.09600000000000004) 10301
(-0.7031654417144247 -0.04999999999999999 0.08400000000000001) 10301
(-0.7041705368676805 -0.05 -0.114) 2301
(-0.7049501576821462 -0.05 0.05399999999999999) 10381
(-0.7055098770247721 -0.05 -0.102) 2301
(-0.7058449954316118 -0.05 -0.114) 2301
(-0.7059572217872151 -0.05 -0.046) 2381
(-0.7071751978439292 -0.05 -0.08599999999999999) 2301
(-0.7081705786396628 -0.05 -0.09400000000000004) 2301
(-0.7089461288399048 -0.05000000000000002 -0.00400000000000001) 2381
(-0.7095004050328975 -0.05 -0.008) 2381
(-0.7098341841122857 -0.05 -0.082) 2301
(-0.7099449755723874 -0.05 -0.13) 2302
(-0.7111535836838028 -0.05 -0.01999999999999999) 2382
(-0.7121419131678504 -0.05 0.05600000000000002) 10382
(-0.7129104706554306 -0.04999999999999999 -0.128) 2302
(-0.7134605560446768 -0.05000000000000001 0.03799999999999999) 10382
(-0.7137907539276553 -0.05 -0.11) 2302
(-0.7139007809181688 -0.05 0.05000000000000002) 10382
(-0.7150991916557794 -0.04999999999999999 -0.108) 2302
(-0.7160776989616859 -0.05 0.06) 10382
(-0.7168400276469947 -0.04999999999999999 -0.012) 2382
(-0.7173840621565801 -0.05000000000000001 0.01) 10382
(-0.7177107241377576 -0.05000000000000001 -0.02200000000000001) 2382
(-0.7178195898906061 -0.05 0.08200000000000002) 10302
(-0.7190066570698614 -0.05 0.09800000000000005) 10302
(-0.7199771380772584 -0.05 0.002) 10382
(-0.7207309245157913 -0.05 0.07199999999999999) 10382
(-0.7212700654073736 -0.05 0.003999999999999996) 10382
(-0.7215924927484055 -0.05000000000000001 0.08200000000000002) 10382
(-0.7217014420451512 -0.05 0.07400000000000001) 10382
(-0.7228751189528683 -0.05000000000000002 -0.05400000000000002) 2382
(-0.7238334684359908 -0.05 -0.09400000000000003) 2302
(-0.7245787627295567 -0.05 0.09400000000000003) 10302
(-0.725112266567547 -0.05 0.005999999999999999) 10382
(-0.7254312758115412 -0.05 -0.02400000000000002) 2382
(-0.7255382486089246 -0.05 0.038) 10382
(-0.7266985479462414 -0.05 0.062) 10382
(-0.7276449481542702 -0.05 -0.02) 2382
(-0.7283815838628868 -0.05000000000000001 -0.016) 2382
(-0.7289074821734275 -0.05 -0.028) 2382
(-0.7292229905311679 -0.05 -0.054) 2382
(-0.7293276752206866 -0.05 0.09800000000000006) 10302
(-0.7304716313543407 -0.05 0.07599999999999998) 10382
(-0.7314063278394248 -0.05 -0.076) 2382
(-0.732131623118646 -0.05 0.01000000000000001) 10382
(-0.7326498077600889 -0.05000000000000002 -0.114) 2302
(-0.7329605774680126 -0.05000000000000001 -0.04200000000000001) 2382
(-0.7330643995647155 -0.05 0.066) 10382
(-0.7341910684215137 -0.05 -0.1260000000000001) 2302
(-0.7351098070955162 -0.05 0.08800000000000002) 10302
(-0.7358231591643793 -0.05 -0.004000000000000008) 2382
(-0.7363333392113316 -0.05 -0.04000000000000001) 2382
(-0.7366388829831175 -0.05 -0.06) 2382
(-0.7367410150531349 -0.05 0.09200000000000003) 10302
(-0.7378472336098467 -0.05 -0.09400000000000004) 2302
(-0.738750542582406 -0.05 0.04600000000000001) 10382
(-0.7394509872038766 -0.05 0.06600000000000002) 10382
(-0.7399508720300976 -0.05 -0.09800000000000003) 2302
(-0.7402497016129649 -0.05 -0.07400000000000001) 2382
(-0.7403497307827628 -0.05 0.03) 10382
(-0.7414358089637147 -0.05 0.058) 10382
(-0.7423196144095395 -0.05 -0.002000000000000002) 2382
(-0.7430041491381707 -0.05 -0.04399999999999999) 2382
(-0.7434939182772965 -0.05 0.05) 10382
(-0.7437870421307939 -0.05 0.04200000000000001) 10382
(-0.7438847882860383 -0.05 0.06400000000000002) 10382
(-0.7449446501465387 -0.05 -0.07000000000000001) 2382
(-0.7458073063521905 -0.04999999999999999 -0.018) 2382
(-0.7464764788443004 -0.05000000000000001 0.03600000000000001) 10382
(-0.7469531428164071 -0.05 -0.048) 2382
(-0.7472385074375073 -0.05 0.09200000000000003) 10302
(-0.7473340044966994 -0.05 -0.028) 2383
(-0.7483660473601986 -0.05 -0.08) 2383
(-0.7492048552890274 -0.05 -0.06) 2383
(-0.7498540257739363 -0.05 -0.11) 2303
(-0.75031651878959 -0.05 0.01600000000000001) 10383
(-0.7505934208423938 -0.05 0.09000000000000002) 10303
(-0.7506857857492365 -0.05000000000000002 -0.104) 2303
(-0.7516855152387011 -0.05 -0.114) 2303
(-0.7524968053682342 -0.05000000000000001 -0.07600000000000001) 2383
(-0.7531238534753542 -0.05 0.016) 10383
(-0.7535701237346901 -0.05 0.1) 10303
(-0.7538371221974591 -0.05000000000000001 -0.102) 2303
(-0.7539261512636527 -0.05 0.002000000000000004) 10383
(-0.7548886756008434 -0.05 0.03200000000000001) 10383
(-0.7556682189934916 -0.05000000000000002 0.06400000000000002) 10383
(-0.7562697030718142 -0.05 -0.018) 2383
(-0.7566972031249097 -0.05000000000000002 -0.104) 2303
(-0.7569527330474434 -0.05 0.07000000000000001) 10383
)


// ************************************************************************* //
