/*--------------------------------*- C++ -*----------------------------------*\
| =========                 |                                                 |
| \\      /  F ield         | OpenFOAM: The Open Source CFD Toolbox           |
|  \\    /   O peration     | Version:  v1912                                 |
|   \\  /    A nd           | Website:  www.openfoam.com                      |
|    \\/     M anipulation  |                                                 |
\*---------------------------------------------------------------------------*/
FoamFile
{
    version     2.0;
    format      ascii;
    class       vectorField;
    location    "0.001/lagrangian/iceFoamCloud";
    object      U;
}
// * * * * * * * * * * * * * * * * * * * * * * * * * * * * * * * * * * * * * //


136
(
(96.65626440284848 0 6.841652888098821e-13)
(96.54872063597414 0 3.722432747068733e-13)
(96.53019830839649 0 5.466559266259094e-13)
(96.40631439305953 0 -4.037650523920721e-13)
(96.38369689351396 0 6.07221800341424e-13)
(96.27836683341295 0 -3.976794484167505e-13)
(96.21397052695745 0 -6.101975292827801e-13)
(96.21822929202108 0 4.861273562588274e-13)
(96.09452125053268 0 7.159882660746831e-13)
(96.01867485901761 0 -6.982338977372304e-13)
(96.02163811321171 0 -6.742475098989461e-13)
(95.9080378605811 0 -2.527512303850871e-13)
(95.82510464364877 0 4.752887048235877e-14)
(95.77490560780633 0 -5.270275471380235e-13)
(95.78656632357331 0 -5.363284049684794e-13)
(95.65485696491703 0 -1.128466731579341e-13)
(95.55896777082786 0 -4.454542268457323e-13)
(95.50014522868875 0 4.890037684464276e-14)
(95.51931488727645 0 -4.349480296195094e-13)
(95.39161902129098 0 -4.027598449237593e-13)
(95.290281402825 0 1.03895372666615e-13)
(95.21626202468238 0 -4.364692295101478e-13)
(95.17149069060554 0 3.126076814022492e-13)
(95.19194664723278 0 3.163272128637081e-13)
(95.04376206179914 0 -4.783328211046535e-13)
(94.92524258074363 0 -7.862258402090584e-14)
(94.83938337293567 0 4.726700795609319e-14)
(94.78688509193 0 4.369640644578884e-13)
(94.81717656544718 0 3.737935053852922e-13)
(94.66872019924747 0 4.037797814328671e-13)
(94.54396443357615 0 3.847322060710987e-13)
(94.44495142076572 0 3.195565320078237e-14)
(94.37317841668062 0 -4.027346333214375e-14)
(94.32962413786423 0 3.362600901053677e-14)
(94.31499059799836 0 -5.678558346208581e-14)
(94.15391891971262 0 3.19037581983547e-14)
(94.01872907070138 0 1.910417897993719e-13)
(93.9111627100297 0 -1.906875820942882e-13)
(93.83321654417223 0 3.171210618039169e-13)
(93.7858244140494 0 2.845807502441569e-14)
(93.76999662434986 0 7.497161506493548e-14)
(93.59507641977117 0 1.478796693215656e-13)
(93.44774070369171 0 2.234858136804007e-14)
(93.33094828424153 0 -4.105906638210638e-14)
(93.24629226333266 0 3.067839797471631e-14)
(93.19431930646704 0 6.616029840063223e-14)
(93.17724183911751 0 1.310473340880708e-13)
(92.98661930761675 0 1.882974884444904e-13)
(92.82571309753197 0 -1.092002666753056e-13)
(92.69865431849138 0 5.782366915127611e-14)
(92.60576142578576 0 -9.562088111176909e-14)
(92.54966218780329 0 -1.025611583749204e-13)
(92.53074177769172 0 -4.658682849481954e-14)
(92.32237772298778 0 -9.505609453502889e-14)
(92.14750374679664 0 -7.988550659099147e-14)
(92.00796902150759 0 -5.569176071621999e-15)
(91.90687629880338 0 -8.184370220432326e-15)
(91.84497705659285 0 -8.188031988831714e-14)
(91.82439773013714 0 -9.390888062693803e-14)
(91.59613342890717 0 -1.720489415844318e-14)
(91.40417661914898 0 4.448190871435188e-14)
(91.25154873468237 0 -7.716583554170305e-14)
(91.14033815209737 0 2.185098918465527e-14)
(91.07284947857856 0 -6.150430340009271e-14)
(91.05024414754533 0 3.449345425979557e-14)
(90.79961049547136 0 -5.373835171337665e-14)
(90.58908665124973 0 4.342050421718227e-14)
(90.42097298890592 0 -8.256189847950772e-15)
(90.29908244919838 0 -4.711282839256132e-15)
(90.22498029896494 0 -1.179141133525559e-14)
(90.20029794932155 0 6.972362509189768e-14)
(89.92414782038794 0 6.02517554183212e-14)
(89.69154194735698 0 -5.894528249500871e-15)
(89.50650994626564 0 5.189744759391805e-14)
(89.37170333843399 0 -5.809661644039292e-15)
(89.29024736548924 0 6.410295212675031e-14)
(89.26236742867397 0 5.304613603361505e-14)
(88.95781805665899 0 -3.198287243081336e-14)
(88.70128532201549 0 -3.830548867739116e-14)
(88.49661208998978 0 5.412121464897472e-14)
(88.34713619743967 0 -5.732306852898411e-15)
(88.25680251087584 0 -1.197339321664781e-14)
(88.22620955945357 0 3.588769822790724e-15)
(87.88840363015696 0 2.954392308439887e-14)
(87.60392172998156 0 -1.14358009507579e-14)
(87.37624257650076 0 -1.058593159294565e-14)
(87.21050717026431 0 -1.213925428139396e-14)
(87.10980345226655 0 -1.940132820647994e-14)
(87.07627773319736 0 4.390642364533209e-14)
(86.70092111926945 0 4.091034089049319e-14)
(86.3833294427679 0 -3.245058879054397e-14)
(86.13004284398204 0 -3.935536493158581e-15)
(85.94533647989965 0 -9.231805853071555e-15)
(85.83295489907368 0 -1.12696263037977e-14)
(85.7951592783315 0 2.298870708862976e-14)
(85.37589604747578 0 -1.165467557803293e-14)
(85.02158128571863 0 3.971324541889794e-14)
(84.73835964569899 0 -5.416579535186373e-15)
(84.53105878967752 0 -9.588181884276556e-15)
(84.40516100724673 0 -1.002833411519015e-14)
(84.36273511530952 0 3.363415971225443e-14)
(83.8932305164615 0 -1.4836931222724e-14)
(83.4945810808582 0 7.321922777566045e-15)
(83.17589839521723 0 1.285608630586998e-14)
(82.94320669659125 0 -8.145022916922603e-15)
(82.80215430631256 0 -1.078370031593167e-14)
(82.75454792477997 0 3.611733768832377e-15)
(82.22397857008285 0 1.047350911946372e-14)
(81.77491859984735 0 -1.145752759212731e-15)
(81.41586489501553 0 -5.144167682795928e-15)
(81.15202343234303 0 8.093666161438606e-15)
(80.99151429701475 0 6.329681411649133e-15)
(80.93773074513378 0 1.142579839560543e-14)
(80.33806093986425 0 -4.186804545808541e-15)
(79.82888053153498 0 -1.011501125736192e-15)
(79.4194349987207 0 5.196765572766696e-15)
(79.12024812967014 0 -2.268432300975358e-15)
(78.93804041840423 0 1.750191950821297e-14)
(78.87637136981452 0 3.357091840864197e-16)
(78.19290328230322 0 -1.466972060660439e-15)
(77.61156297072829 0 -7.063451396331213e-16)
(77.14466573149947 0 -3.81181644245631e-15)
(76.80253960129399 0 3.265135780956463e-15)
(76.59378700849058 0 1.354033215001868e-14)
(76.52349075994219 0 -1.666511274743992e-15)
(75.74008363629343 0 -2.873941091387334e-15)
(75.07250113359761 0 4.199571862639132e-16)
(74.53552081195812 0 3.694444182804044e-15)
(74.1415792703648 0 1.106807994109784e-14)
(73.90101992646881 0 -3.076340600358111e-16)
(73.81998042892425 0 5.598588560815904e-15)
(72.91574178712771 0 4.144646373566556e-15)
(72.14359922172045 0 5.069014661654141e-15)
(71.52145649593483 0 3.033551673016593e-15)
(71.0644406160373 0 2.97430689739708e-16)
(70.78511732908433 0 4.225295400870645e-15)
)


// ************************************************************************* //
