/*--------------------------------*- C++ -*----------------------------------*\
| =========                 |                                                 |
| \\      /  F ield         | OpenFOAM: The Open Source CFD Toolbox           |
|  \\    /   O peration     | Version:  v1912                                 |
|   \\  /    A nd           | Website:  www.openfoam.com                      |
|    \\/     M anipulation  |                                                 |
\*---------------------------------------------------------------------------*/
FoamFile
{
    version     2.0;
    format      ascii;
    class       volScalarField;
    location    "0.001";
    object      alphat;
}
// * * * * * * * * * * * * * * * * * * * * * * * * * * * * * * * * * * * * * //

dimensions      [1 -1 -1 0 0 0 0];


internalField   nonuniform List<scalar> 
16000
(
1.73716293581278e-07
3.574543601044845e-05
2.512137636275598e-05
3.44460398484101e-05
4.136963813479139e-05
2.849051311410913e-05
4.269208520368778e-05
3.457101722996749e-05
4.141082785760565e-05
3.916270923586277e-05
4.055480210793467e-05
4.068332558409007e-05
4.127690291380412e-05
4.178953406322661e-05
4.242461299293257e-05
4.30349034949647e-05
4.379269880910974e-05
4.450693658555339e-05
4.537562857498485e-05
4.620001391835672e-05
4.713114943504604e-05
4.804899025682739e-05
4.900419332333349e-05
4.997310156106262e-05
5.096150610342668e-05
5.199842762441898e-05
5.308965797342547e-05
5.428512453593747e-05
5.560903746864254e-05
5.712016674880742e-05
5.88122431871977e-05
6.068817252578011e-05
6.264936624648349e-05
6.464190898526031e-05
6.685126871924705e-05
6.946539299959825e-05
7.291594310433435e-05
7.736164180796843e-05
8.036670679005058e-05
7.797064007649173e-05
7.082194569350608e-05
6.437770705075528e-05
6.234848320044891e-05
6.629192371432895e-05
7.817597865420316e-05
0.0001025190248122929
0.0001493548416247227
0.0002411472862013678
0.0004300888426672566
0.0008445468027898658
0.001353078551034158
0.001352237165461795
0.001351914667777506
0.001351792567921411
0.001351748431181316
0.001351733511854866
0.001351728866850603
0.001351727552809055
0.001351727223544908
0.00135172714988702
0.001351727142345279
0.001351727149838618
0.001351727154144248
0.001351727160915107
0.001351727166885165
0.001351727169327026
0.001351727170202492
0.001351727170425923
0.001351727171792036
0.001351727172902352
0.001351727171620722
0.001351727175452077
0.001351727184168388
0.001351727181610727
0.001351727177133111
0.001351727175831561
0.001351727180194516
0.001351727173610207
0.001351727238190668
0.001351728621931923
1.74224470310827e-07
3.064813163209435e-05
2.284701141535877e-05
3.218721786212105e-05
3.713353487177433e-05
2.702255501814097e-05
3.841427705420995e-05
3.195196382294595e-05
3.846889376791567e-05
3.633887400244938e-05
3.775312983503963e-05
3.786907964630462e-05
3.848292889627844e-05
3.902430272001702e-05
3.966863104940152e-05
4.03088279419199e-05
4.105654833044011e-05
4.178533897970761e-05
4.264091625251351e-05
4.350091410360065e-05
4.44748567121845e-05
4.547318401529931e-05
4.653863161054133e-05
4.764308306846489e-05
4.878982356652545e-05
5.000256781990375e-05
5.127976544405437e-05
5.267485790454861e-05
5.419708846679656e-05
5.590985694813293e-05
5.779498857329946e-05
5.985472930672849e-05
6.200064321706644e-05
6.414919787504706e-05
6.636255521855538e-05
6.894784855332644e-05
7.25850689655142e-05
7.763725186313528e-05
8.179908576879401e-05
7.935541446747953e-05
6.996116312064333e-05
6.109902729956471e-05
5.707411228913222e-05
5.886728205901623e-05
6.769519098111793e-05
8.695106326955699e-05
0.0001245711987511322
0.0001984682731961768
0.0003502692333034557
0.0006821768451300624
0.001353458972588817
0.001352375130888298
0.001351963049162525
0.001351809091511283
0.001351753769015912
0.001351735107019254
0.001351729298807134
0.001351727655784349
0.001351727241274603
0.001351727145297186
0.001351727137750793
0.001351727146945187
0.001351727149365429
0.001351727157466834
0.001351727164875081
0.001351727164813349
0.001351727168092412
0.0013517271704586
0.001351727172166013
0.001351727170879212
0.001351727171404232
0.001351727175214821
0.001351727180135917
0.001351727179139544
0.001351727175401081
0.001351727175561033
0.001351727177163432
0.001351727175126142
0.001351727241745156
0.001351730037441972
1.747676126226012e-07
2.645374170170846e-05
2.068821168406107e-05
2.9494094261251e-05
3.328415700496204e-05
2.570930133680601e-05
3.43480523149591e-05
2.962197980681193e-05
3.528831667816703e-05
3.356364562313413e-05
3.486255039221025e-05
3.499986121018115e-05
3.560794798115143e-05
3.616928031704978e-05
3.680913897854483e-05
3.746432039545811e-05
3.817137759955737e-05
3.889380660476601e-05
3.970437828538126e-05
4.056109823197521e-05
4.154245141893762e-05
4.257403596247066e-05
4.371173760838353e-05
4.490928679574925e-05
4.618049904834064e-05
4.753060998888921e-05
4.89598724804795e-05
5.051913017584256e-05
5.220001008976091e-05
5.407161586735518e-05
5.611108543197587e-05
5.833434518169823e-05
6.064926614518955e-05
6.296319256044635e-05
6.528374230493874e-05
6.795864834330393e-05
7.188537030010458e-05
7.80748685111905e-05
8.496697358889973e-05
8.432895150720539e-05
7.243097782542085e-05
6.025535127933511e-05
5.388451855040681e-05
5.368390497969428e-05
6.005418386403118e-05
7.545356885815117e-05
0.00010622658987285
0.0001669537776057155
0.0002916042134325019
0.0005634871857118472
0.001199963757607328
0.001352524144224157
0.001352013181289388
0.001351825916509944
0.001351759155624469
0.001351736713017325
0.001351729738055553
0.001351727764926024
0.001351727264110178
0.001351727146458142
0.001351727138316747
0.001351727146066086
0.001351727145445218
0.001351727156302141
0.00135172716478986
0.001351727164237641
0.001351727165077042
0.001351727169385691
0.001351727177242185
0.001351727170529748
0.001351727174710544
0.001351727176008555
0.001351727174268979
0.001351727176450568
0.001351727175005567
0.001351727175622082
0.001351727175515155
0.001351727176110218
0.001351727256783732
0.001351731255836033
1.753429843077501e-07
2.266699057111905e-05
1.873154559190881e-05
2.669136081328262e-05
2.996744454322573e-05
2.457085579262265e-05
3.090097253093528e-05
2.773292276129683e-05
3.22778302242817e-05
3.109350767741201e-05
3.218069492790001e-05
3.236117856782222e-05
3.294962695949829e-05
3.352530567600103e-05
3.414939304047541e-05
3.481503955653897e-05
3.547281388682053e-05
3.618257220354971e-05
3.693953206483465e-05
3.777537795287177e-05
3.874590365278921e-05
3.978622124443809e-05
4.097180934317526e-05
4.223676301844233e-05
4.361110705314012e-05
4.508053720660378e-05
4.665882105216436e-05
4.8383531380724e-05
5.025216724988552e-05
5.231924017354296e-05
5.457048423589752e-05
5.699510872388114e-05
5.951052581454181e-05
6.195668812937918e-05
6.429072235831217e-05
6.680425622296371e-05
7.055314674323292e-05
7.726586950964428e-05
8.704060203600368e-05
9.051343117223093e-05
7.682723713943934e-05
6.076917240922511e-05
5.19193810710611e-05
4.995607785929078e-05
5.441312251969109e-05
6.696448552704865e-05
9.278452698070202e-05
0.0001440950655442127
0.0002495106928777561
0.0004792510996638622
0.001016506724694268
0.001352673111779969
0.001352061709407631
0.001351841786121519
0.001351764133314819
0.00135173817188772
0.00135173013045521
0.001351727859504803
0.001351727279888247
0.001351727149327391
0.00135172713757407
0.001351727141532104
0.001351727141663953
0.001351727150635116
0.001351727163636143
0.001351727163723921
0.001351727164725874
0.001351727166809258
0.001351727175134025
0.001351727170901531
0.001351727177108308
0.001351727174221546
0.00135172717364984
0.001351727176042834
0.001351727174578845
0.001351727177826218
0.001351727175421971
0.001351727179316848
0.001351727313930821
0.001351732490692825
1.759307556189604e-07
1.92084864567253e-05
1.690937347858913e-05
2.387780152914401e-05
2.700899383922148e-05
2.350674663222383e-05
2.79399137362335e-05
2.614432786116264e-05
2.945345896460808e-05
2.884315080570862e-05
2.967275838276752e-05
2.991537191400731e-05
3.048494882138665e-05
3.10781337035158e-05
3.168338499414112e-05
3.235625289627496e-05
3.296318253266527e-05
3.365052099289214e-05
3.434381843136088e-05
3.513965359707564e-05
3.607692060815163e-05
3.70969297768742e-05
3.829720005164677e-05
3.958964838891379e-05
4.102569122705545e-05
4.256726668948317e-05
4.425191198257695e-05
4.610340659788756e-05
4.813808258649806e-05
5.039574936391103e-05
5.287812573727791e-05
5.55480170778097e-05
5.832151113652517e-05
6.094759011079603e-05
6.328679332201479e-05
6.547463879453638e-05
6.86452521398874e-05
7.500180346983874e-05
8.649644128318213e-05
9.566632795662909e-05
8.219388690845833e-05
6.201314782447071e-05
5.066927159913993e-05
4.718360578755961e-05
5.016595157007726e-05
6.06284444722994e-05
8.2882943970593e-05
0.0001274909104978313
0.0002193560766567497
0.0004197282386489094
0.0008886215865195871
0.001352808600211463
0.001352104131814255
0.001351855171297226
0.001351768200279192
0.001351739322681745
0.001351730428352448
0.00135172792853562
0.001351727292208994
0.001351727151893537
0.001351727138504499
0.001351727139942592
0.001351727140306809
0.0013517271481379
0.001351727162996789
0.001351727165606622
0.001351727164939775
0.001351727166365298
0.001351727169593509
0.001351727171731347
0.00135172717348311
0.001351727174241223
0.001351727173352969
0.001351727175722508
0.001351727174387032
0.001351727175973719
0.001351727175860749
0.001351727180134412
0.00135172738047085
0.001351733798614863
1.76517329844623e-07
1.609750583189527e-05
1.52413179705581e-05
2.112003996752936e-05
2.430998051741585e-05
2.246589856905305e-05
2.534985493335867e-05
2.468496925209114e-05
2.681246702534112e-05
2.670119895228421e-05
2.727645699808643e-05
2.758572614111234e-05
2.814045379512137e-05
2.87557008814967e-05
2.934703133946379e-05
3.00249969162302e-05
3.059149592516171e-05
3.125284334832358e-05
3.189128305587962e-05
3.264353988567271e-05
3.354167597636503e-05
3.45341536134183e-05
3.572975626482043e-05
3.702640075365136e-05
3.849110235925821e-05
4.006986548641969e-05
4.181893437920458e-05
4.375363555167679e-05
4.591349093822071e-05
4.832987031615275e-05
5.103106067943754e-05
5.397566577954605e-05
5.708127104675184e-05
6.00252059630883e-05
6.251402600163565e-05
6.44522030820214e-05
6.69225560719213e-05
7.237096468965719e-05
8.41094757214799e-05
9.842657244412724e-05
8.754458541997969e-05
6.345532633669875e-05
4.976669335215559e-05
4.502954597420545e-05
4.69120805758123e-05
5.58722515514855e-05
7.560473911994613e-05
0.0001155298117809731
0.0001980504470145335
0.0003784701134305704
0.0008016993738324442
0.001352915877167174
0.001352134841856237
0.001351864150632053
0.001351770719674586
0.001351739977272841
0.001351730582037959
0.001351727957851154
0.001351727297363998
0.001351727152723099
0.001351727139743866
0.001351727139698635
0.001351727140197382
0.001351727146568539
0.001351727161525399
0.001351727169953945
0.00135172716772924
0.001351727166157386
0.001351727167612351
0.001351727175331304
0.001351727172812118
0.001351727174684834
0.001351727173542532
0.001351727176853655
0.001351727174407014
0.001351727175812557
0.001351727177036965
0.001351727183080281
0.001351727458634308
0.001351735164837514
1.771120404681364e-07
1.345499680205943e-05
1.368669594293876e-05
1.843358230234217e-05
2.178258181636675e-05
2.140103967597714e-05
2.307801981629483e-05
2.325060058913714e-05
2.439582927740317e-05
2.464564228951264e-05
2.501527854148907e-05
2.538475272323273e-05
2.592429836230266e-05
2.655839489853024e-05
2.713721852060243e-05
2.780724696539932e-05
2.834621201014334e-05
2.897573396511147e-05
2.957310388420726e-05
3.028679980700251e-05
3.114441181311602e-05
3.211378975734339e-05
3.329372583097449e-05
3.45841304482257e-05
3.605315117773449e-05
3.764502822200412e-05
3.942325299831907e-05
4.139710302047184e-05
4.362806755756623e-05
4.614659132244919e-05
4.901245221434548e-05
5.220257113146077e-05
5.566168511085466e-05
5.904530471311288e-05
6.189427203771642e-05
6.381438457367077e-05
6.57052674100656e-05
7.013420835282169e-05
8.120460105157638e-05
9.870359387978791e-05
9.174443133775496e-05
6.44979595258852e-05
4.888408053237989e-05
4.323204756972067e-05
4.435798914597666e-05
5.229475440520163e-05
7.03167450307345e-05
0.0001071147859445851
0.0001835377539338758
0.0003512954216599639
0.000746507368983226
0.001352974115543198
0.001352149604335006
0.001351867794242034
0.001351771501522232
0.001351740096298689
0.001351730578994951
0.001351727945864237
0.001351727291961452
0.001351727149321828
0.001351727132500295
0.001351727139503092
0.00135172714018922
0.001351727146446108
0.001351727155234108
0.001351727166199234
0.001351727170982243
0.001351727169007669
0.001351727166958073
0.001351727172894679
0.001351727172907101
0.001351727174610011
0.001351727174570521
0.001351727178355458
0.00135172717451557
0.001351727176162149
0.001351727179032761
0.001351727191008979
0.0013517275500995
0.001351736590086654
1.776789340802193e-07
1.12498099858114e-05
1.226678186224484e-05
1.586249702885071e-05
1.935589552271165e-05
2.030890638215127e-05
2.108099443788404e-05
2.182661395007654e-05
2.222253953091124e-05
2.268795931381894e-05
2.291852285489612e-05
2.333393480209672e-05
2.385576418425334e-05
2.449313922237418e-05
2.505767604547164e-05
2.569990150380052e-05
2.621751177279832e-05
2.680714240715473e-05
2.737661605398317e-05
2.806169126891958e-05
2.888178552206893e-05
2.983669175583548e-05
3.099279818382462e-05
3.227568649473782e-05
3.373358713388708e-05
3.532558188580603e-05
3.71107951748828e-05
3.909635748263972e-05
4.135784531806863e-05
4.392703435097492e-05
4.689083531311939e-05
5.025703965523044e-05
5.402270588304449e-05
5.788276873924887e-05
6.126565157673297e-05
6.344797873258314e-05
6.500523481982484e-05
6.856375378956912e-05
7.872418587730999e-05
9.753148885260614e-05
9.390598158135239e-05
6.45838339918918e-05
4.774859707687883e-05
4.15820332392643e-05
4.227814423234821e-05
4.959954002749749e-05
6.658532680028631e-05
0.0001015339784630033
0.0001745242259812648
0.0003356533516023876
0.0007176206048066922
0.001352985595007015
0.001352148088801761
0.001351865645392749
0.001351770320643819
0.001351739593211304
0.001351730395257668
0.001351727887578055
0.001351727275966018
0.001351727144561877
0.001351727123960808
0.001351727136398565
0.001351727139787345
0.001351727146443868
0.001351727153484673
0.001351727164775867
0.001351727165170369
0.001351727171506356
0.001351727166451801
0.00135172717190459
0.0013517271729923
0.001351727176146316
0.001351727176912656
0.001351727177169318
0.001351727176682205
0.001351727179320872
0.001351727182591359
0.001351727196290771
0.001351727671160703
0.001351738086146645
1.781753549493909e-07
9.455325878354158e-06
1.096513101668099e-05
1.357359390328869e-05
1.71121005466614e-05
1.909669703761352e-05
1.932090982744659e-05
2.036644095037786e-05
2.025499384253694e-05
2.080937440597223e-05
2.096580294269968e-05
2.14083605518632e-05
2.191280116027801e-05
2.253398976147899e-05
2.308357991588121e-05
2.368366411923867e-05
2.418093423632548e-05
2.472677646064829e-05
2.527655102500312e-05
2.594418911464387e-05
2.673921700973813e-05
2.769068756945602e-05
2.881965263085596e-05
3.009488248140734e-05
3.153483866460421e-05
3.312032974641206e-05
3.490214836275215e-05
3.688644510068014e-05
3.915611598663783e-05
4.174595094015912e-05
4.475449176132251e-05
4.822776469618374e-05
5.22175090462833e-05
5.650779727696917e-05
6.049439405990406e-05
6.316002607695997e-05
6.466175872101215e-05
6.762625160818789e-05
7.702902775224091e-05
9.60154846130415e-05
9.363029363689713e-05
6.331561005225471e-05
4.618830628932859e-05
3.99673308699432e-05
4.055336177417104e-05
4.762813138831062e-05
6.416239958711513e-05
9.837169209879208e-05
0.0001702726194492592
0.0003301763803150914
0.0007124243867316782
0.001352940244284024
0.001352127692878036
0.001351857384837687
0.001351767227616964
0.001351738529318483
0.001351730062716962
0.001351727793352017
0.001351727252273414
0.001351727139538691
0.001351727121345587
0.001351727131586815
0.001351727141014794
0.001351727145730781
0.001351727152255992
0.001351727161314058
0.001351727164020654
0.001351727167561569
0.001351727166679255
0.001351727171762961
0.001351727174272416
0.001351727177370409
0.001351727176875484
0.00135172717704305
0.001351727179184455
0.001351727179560441
0.001351727179411804
0.001351727198833988
0.001351727814224436
0.001351739656526784
1.785656904053817e-07
8.065425429802206e-06
9.794106887020476e-06
1.161504787130123e-05
1.510582620559055e-05
1.762081756188055e-05
1.774345562320271e-05
1.882252475589264e-05
1.844843820691334e-05
1.899880363149409e-05
1.913401752482135e-05
1.958227948602091e-05
2.006936527542175e-05
2.065608312704842e-05
2.118651892592153e-05
2.173900390517368e-05
2.221544507522951e-05
2.272689287033542e-05
2.326282435819034e-05
2.391962134897179e-05
2.470134003086516e-05
2.565579416023954e-05
2.676209392185376e-05
2.802570730443152e-05
2.944452300651617e-05
3.101232883975017e-05
3.277612208953305e-05
3.474450640517126e-05
3.699475721631789e-05
3.956905344496654e-05
4.256770145611596e-05
4.606306480011739e-05
5.01625030922471e-05
5.475344307020366e-05
5.927854900948294e-05
6.250344756326117e-05
6.414526481362432e-05
6.717208250438681e-05
7.617311551814212e-05
9.478735969848658e-05
9.098600843339096e-05
6.066249510597113e-05
4.418964999497569e-05
3.835781590444334e-05
3.913069379763319e-05
4.6283637740431e-05
6.288973603102568e-05
9.738831391102376e-05
0.0001704474605661277
0.0003344625864606753
0.000730755741612139
0.001352842652747884
0.001352091342690586
0.001351844054746446
0.001351762581812103
0.001351737028642476
0.001351729618255197
0.001351727674554107
0.001351727223823435
0.001351727134210125
0.001351727118880302
0.001351727130922123
0.001351727139477658
0.001351727145628848
0.001351727152243707
0.001351727160408518
0.001351727163341701
0.001351727166704337
0.001351727166755567
0.001351727171559168
0.001351727172366695
0.001351727176133771
0.001351727179051865
0.001351727177080118
0.001351727178408257
0.001351727176439518
0.001351727175378371
0.001351727213143579
0.001351727988911191
0.001351741306814505
1.78805724085648e-07
7.011251254144041e-06
8.782042876221342e-06
9.942961914280532e-06
1.33779939634273e-05
1.585500895120459e-05
1.629010527814114e-05
1.719238841752553e-05
1.676661251421256e-05
1.725631972549185e-05
1.740649714202166e-05
1.784198696369995e-05
1.830879396435717e-05
1.884960329320564e-05
1.935214420885337e-05
1.985699006908572e-05
2.031266299140906e-05
2.080595822409577e-05
2.133954440286323e-05
2.199520319046528e-05
2.277290966176632e-05
2.372937495057071e-05
2.482554725969357e-05
2.607834498808225e-05
2.748363623459535e-05
2.904043848332885e-05
3.07921353949194e-05
3.275676812170429e-05
3.500186900924022e-05
3.757536608752531e-05
4.057267626523633e-05
4.409036402536948e-05
4.827049460141261e-05
5.311330816205857e-05
5.813173160624398e-05
6.196168646579272e-05
6.391758533311595e-05
6.65795059782316e-05
7.551047701943892e-05
9.314675974324597e-05
8.543287060180014e-05
5.683056729040233e-05
4.184122327212214e-05
3.675974432449541e-05
3.796112857534141e-05
4.549773287341543e-05
6.270274780578017e-05
9.854978901622751e-05
0.0001751405692766868
0.0003490853065090277
0.0007749659399575474
0.001352705814114058
0.001352043139897611
0.001351827133007197
0.001351756903987178
0.001351735258476513
0.001351729113655375
0.001351727543103666
0.001351727192521736
0.001351727127605492
0.001351727117516803
0.001351727130583669
0.001351727139396967
0.001351727148512468
0.001351727151437537
0.00135172715973414
0.00135172716334625
0.001351727166532388
0.001351727167646097
0.001351727171818459
0.001351727172384263
0.001351727175735625
0.001351727179852637
0.001351727177799061
0.001351727177111694
0.001351727175935344
0.001351727177864565
0.001351727234052761
0.001351728204764568
0.001351743043785015
1.783813874043924e-07
6.216708422922962e-06
7.930329882279022e-06
8.537385572050899e-06
1.196118386390282e-05
1.396533380815374e-05
1.492189690568927e-05
1.552357942366584e-05
1.518758605365736e-05
1.55928162346782e-05
1.5773586169928e-05
1.618384766689723e-05
1.662382498961202e-05
1.711424710456998e-05
1.758205756025831e-05
1.804567478724028e-05
1.848460478385688e-05
1.897063289796339e-05
1.951252617388509e-05
2.018102938650525e-05
2.096745727328791e-05
2.192350566847251e-05
2.301668687644131e-05
2.426031554096935e-05
2.565508264038739e-05
2.720406741253893e-05
2.894552069510431e-05
3.090775737939684e-05
3.314928407284586e-05
3.572450862348487e-05
3.871672477602632e-05
4.224802839562137e-05
4.648462801787499e-05
5.152319378869485e-05
5.694510067160918e-05
6.131313603564622e-05
6.363927520387251e-05
6.657181761687204e-05
7.590452415261008e-05
9.184194416400187e-05
7.848839026033937e-05
5.177239042332765e-05
3.893551832313961e-05
3.491631914032582e-05
3.706867112497577e-05
4.52943354837973e-05
6.364634602339141e-05
0.0001020073846709594
0.0001848541124743821
0.0003756695339679031
0.0008503899691053614
0.001352545977931395
0.001351988490187325
0.001351808451105509
0.001351750810153707
0.001351733414338021
0.001351728604548448
0.00135172741693978
0.001351727163781583
0.001351727121706885
0.001351727116230214
0.001351727130767546
0.001351727137884293
0.001351727144929251
0.001351727152008972
0.001351727159826195
0.001351727163338116
0.001351727166744535
0.001351727170668655
0.001351727172578142
0.001351727173271648
0.001351727175845057
0.001351727178078435
0.001351727179248574
0.001351727176809464
0.001351727174615766
0.001351727180181779
0.001351727255662504
0.001351728450315538
0.001351744871727099
1.768621103516615e-07
5.602376177133721e-06
7.219311215436071e-06
7.383010032319649e-06
1.083572126246455e-05
1.217320842162886e-05
1.360534629620268e-05
1.388254068043106e-05
1.369351247889067e-05
1.401705973724755e-05
1.422605097534285e-05
1.460448236108293e-05
1.501193237703432e-05
1.545330737604161e-05
1.588537488542671e-05
1.631873706987338e-05
1.675212992660571e-05
1.724189106728276e-05
1.780009094603544e-05
1.848689952531818e-05
1.929182807483372e-05
2.025127090962897e-05
2.134511566117124e-05
2.258166058557337e-05
2.396545910211125e-05
2.550897743592054e-05
2.724675140161428e-05
2.921215647765612e-05
3.145798075740189e-05
3.403993787639796e-05
3.703345865085552e-05
4.057780058221254e-05
4.48649601949724e-05
5.006759539274252e-05
5.581980949234274e-05
6.061480798438985e-05
6.330733571511063e-05
6.675642795745491e-05
7.679265311514819e-05
8.93739263396494e-05
7.014939392775983e-05
4.678135335264648e-05
3.628217839543319e-05
3.346229650222308e-05
3.617100617748438e-05
4.531964965993402e-05
6.585033062016836e-05
0.0001081117408479803
0.0002005861892114174
0.0004172013772660477
0.0009664866641282871
0.001352379642176002
0.001351932917487183
0.001351789847771009
0.001351744892740847
0.001351731674582302
0.001351728140994633
0.001351727307900702
0.001351727140340797
0.001351727115877836
0.001351727123433797
0.001351727136763333
0.001351727137919072
0.0013517271439842
0.001351727152360691
0.001351727160002429
0.001351727166110023
0.001351727168600829
0.001351727170926861
0.001351727171126145
0.001351727173358428
0.001351727176516098
0.001351727177968256
0.001351727179160272
0.001351727176819439
0.001351727175002569
0.00135172718074523
0.001351727281740998
0.001351728748785802
0.00135174679086192
1.744646624882179e-07
5.107997553247129e-06
6.628579542806856e-06
6.443945409262146e-06
9.968371893085156e-06
1.060910017772912e-05
1.23094504220785e-05
1.231709025363227e-05
1.226799969769559e-05
1.252714795040509e-05
1.275403994883434e-05
1.309934295465616e-05
1.347348750582071e-05
1.387328412008828e-05
1.427636379910134e-05
1.469209363518503e-05
1.513137810639574e-05
1.563629993815424e-05
1.622014601448559e-05
1.692821358668844e-05
1.775385575985619e-05
1.871972817019122e-05
1.981523364277492e-05
2.104956123998277e-05
2.242896526914253e-05
2.397301737179703e-05
2.569565892681249e-05
2.766069978689966e-05
2.990313489996424e-05
3.2478894098891e-05
3.545652035662507e-05
3.898931007123978e-05
4.329189536982058e-05
4.860122345714208e-05
5.456536885550263e-05
5.959411611941644e-05
6.257219624081359e-05
6.672261933029044e-05
7.738512578392109e-05
8.398634213706765e-05
6.083854944080613e-05
4.192672112810788e-05
3.378191449334847e-05
3.223705835740242e-05
3.595584882789425e-05
4.643762157269366e-05
6.888231627578811e-05
0.0001163683064951027
0.0002240048297836343
0.0004786096098026925
0.001138832784625017
0.001352222133194161
0.001351881130931819
0.001351772846569805
0.00135173962180847
0.001351730174760463
0.001351727754560381
0.001351727213909714
0.001351727118438566
0.001351727111749838
0.001351727125862841
0.001351727138464006
0.00135172714076056
0.001351727144239253
0.001351727156802729
0.001351727161957231
0.001351727164491901
0.001351727168607675
0.001351727169514889
0.001351727171039145
0.001351727174718029
0.001351727175284282
0.001351727178164081
0.001351727179339219
0.001351727177412608
0.001351727176710642
0.001351727183053482
0.001351727319701529
0.001351729099010296
0.001351748803129314
1.71305775332343e-07
4.833042700581177e-06
6.120154433730339e-06
5.681640630998677e-06
9.314986305553707e-06
9.296696845780256e-06
1.10145591179411e-05
1.085409183064149e-05
1.090538785488492e-05
1.112267610725888e-05
1.13570215471117e-05
1.167317072858006e-05
1.201889930702265e-05
1.238889802574043e-05
1.277476114406314e-05
1.31868329047551e-05
1.364165678954683e-05
1.416909600873159e-05
1.478328124403705e-05
1.551403688556735e-05
1.635999815296861e-05
1.733553709778514e-05
1.84321924155615e-05
1.9665467306634e-05
2.10434489824115e-05
2.258874035010309e-05
2.433358153665605e-05
2.631340313411203e-05
2.857069817894188e-05
3.115783745734674e-05
3.414273936656648e-05
3.769262643681103e-05
4.205688166619201e-05
4.751276184543335e-05
5.367543270201941e-05
5.883001989919722e-05
6.21053603534263e-05
6.720967029600449e-05
7.796434828337084e-05
7.612073209568035e-05
5.224425866284081e-05
3.719357573638903e-05
3.130918537574737e-05
3.107472932643707e-05
3.623195611555274e-05
4.845389242316049e-05
7.432070959139139e-05
0.0001296790510763997
0.0002552184222521438
0.0005624089508464377
0.001352897736455438
0.001352084836620655
0.001351836389836168
0.001351758478280381
0.001351735301819555
0.001351728991242487
0.001351727462884327
0.001351727145864147
0.001351727103264695
0.001351727113340515
0.001351727122220628
0.001351727138333897
0.001351727140789104
0.001351727145448914
0.001351727155291753
0.001351727160336763
0.001351727164218248
0.001351727169990015
0.001351727169997069
0.001351727170869282
0.001351727175978461
0.001351727175777611
0.001351727177903431
0.001351727177979696
0.001351727177676476
0.001351727180488391
0.001351727187425543
0.00135172736815335
0.001351729515463977
0.001351750909883226
1.677019266960149e-07
5.040443720632158e-06
5.634795401943327e-06
5.077325551206782e-06
8.795528128124556e-06
8.189735782604165e-06
9.723466962935137e-06
9.506017346585877e-06
9.615151610166962e-06
9.809968227004525e-06
1.004564591585793e-05
1.033947401852811e-05
1.066538278293364e-05
1.101883518682553e-05
1.140019248554923e-05
1.182067123400651e-05
1.229757471968874e-05
1.285133607621011e-05
1.349632626491402e-05
1.424934333661792e-05
1.511409028215449e-05
1.609993926755844e-05
1.720719180816844e-05
1.844745624567581e-05
1.983570298114115e-05
2.139523525089813e-05
2.315773782155783e-05
2.515736160316094e-05
2.743158569623321e-05
3.002753188657591e-05
3.302249223758124e-05
3.660113583861714e-05
4.105786085663732e-05
4.669173961108773e-05
5.300743595626461e-05
5.81604653613698e-05
6.17755107578453e-05
6.797298652196762e-05
7.706877052108692e-05
6.611064006075407e-05
4.462386695346877e-05
3.333322622423174e-05
2.9446269033202e-05
3.05269160345929e-05
3.678845451807724e-05
5.114980047803979e-05
8.213993719985836e-05
0.0001485350961131758
0.0003025923233653937
0.0006898843986685884
0.001352541824517436
0.001351974153901415
0.001351800305159935
0.001351747192006568
0.00135173203341211
0.001351728130945164
0.001351727258262942
0.001351727105390892
0.001351727095332506
0.001351727110562175
0.001351727120160373
0.00135172714071549
0.00135172714531929
0.001351727153905093
0.001351727155001443
0.001351727160343071
0.001351727164351678
0.001351727170859096
0.001351727172061049
0.001351727173512593
0.001351727175931464
0.001351727175731551
0.001351727178076924
0.001351727178172737
0.001351727179734362
0.001351727181665672
0.001351727194336709
0.001351727426081838
0.001351729990667833
0.0013517531050778
1.638650380420183e-07
5.628923167241766e-06
5.22491726852562e-06
4.580668348614802e-06
8.32377622795273e-06
7.234061047673563e-06
8.460328057339967e-06
8.276388210739325e-06
8.41193652079379e-06
8.598730628597888e-06
8.833673176786609e-06
9.114060949469033e-06
9.430126811347674e-06
9.779166627934929e-06
1.016683587969761e-05
1.0604454175268e-05
1.11066628318373e-05
1.168795236667986e-05
1.236161722987861e-05
1.31381235394111e-05
1.40226107979845e-05
1.502259516908801e-05
1.614354735095369e-05
1.739721845822091e-05
1.880196357678293e-05
2.038194329292198e-05
2.216830259314315e-05
2.419214300291449e-05
2.648528743924279e-05
2.904719637069338e-05
3.203846241735398e-05
3.564006977844597e-05
4.020263566340453e-05
4.59900697276064e-05
5.232351684400783e-05
5.72898986484961e-05
6.130854867008055e-05
6.836263238894363e-05
7.272662171376477e-05
5.565414316222724e-05
3.82507662191499e-05
3.016800457128227e-05
2.803991330160867e-05
3.045945958199513e-05
3.836149577035431e-05
5.564343507097491e-05
9.225817376805265e-05
0.0001750060435966598
0.0003702021008390993
0.0008763030469881641
0.001352272792499608
0.001351889130877016
0.001351773135032673
0.001351738966100514
0.001351729753252105
0.001351727564762826
0.001351727135567614
0.001351727091233725
0.001351727093255437
0.001351727109748858
0.001351727119706126
0.001351727140106904
0.001351727150647151
0.001351727155307591
0.001351727160320971
0.001351727160193729
0.001351727167081814
0.001351727168614533
0.001351727171179346
0.001351727174287377
0.00135172717667525
0.001351727176675988