/*--------------------------------*- C++ -*----------------------------------*\
| =========                 |                                                 |
| \\      /  F ield         | OpenFOAM: The Open Source CFD Toolbox           |
|  \\    /   O peration     | Version:  v1912                                 |
|   \\  /    A nd           | Website:  www.openfoam.com                      |
|    \\/     M anipulation  |                                                 |
\*---------------------------------------------------------------------------*/
FoamFile
{
    version     2.0;
    format      ascii;
    class       volScalarField;
    location    "0.001";
    object      k;
}
// * * * * * * * * * * * * * * * * * * * * * * * * * * * * * * * * * * * * * //

dimensions      [0 2 -2 0 0 0 0];


internalField   nonuniform List<scalar> 
16000
(
0.02111782821673343
0.01031179099164434
0.01022620686036513
0.01022395693669303
0.01021428567535541
0.01021792295869156
0.01021438166195104
0.01021635362709008
0.0102166800049903
0.01021778973438118
0.0102185856940953
0.01021904303196666
0.01022055053360753
0.01022217276076436
0.01022337693396699
0.01022545549529248
0.01022785889499803
0.01022974743119936
0.01023246545630814
0.01023531665712057
0.01023747856104733
0.0102404126804077
0.01024267797330154
0.01024499530278095
0.010247644937094
0.01024953803527072
0.01025235711163355
0.01025443579201089
0.01025724672843175
0.01026006462634055
0.0102627013220348
0.01026613164419913
0.010268503005619
0.01027188693257083
0.01027432407878378
0.01027719551904665
0.01027949926120557
0.01028014732760723
0.01027824074349292
0.01027144637041334
0.01025751185859266
0.01023486056590093
0.01020406494124765
0.01016754674198436
0.01012926377558206
0.01009331107560608
0.01006265740289104
0.01003858483298235
0.01002085512732417
0.01000839514044943
0.009998708573642457
0.00999341064720388
0.009991781229391847
0.009991258521960551
0.009991087171416575
0.009991031682635052
0.009991014618101847
0.009991009746851841
0.009991008470404737
0.009991008164613477
0.009991008097761701
0.009991008084369889
0.009991008081999797
0.009991008081654665
0.009991008081623157
0.009991008081617703
0.009991008081625058
0.009991008081618015
0.009991008081617066
0.009991008081641353
0.009991008081618612
0.009991008081641916
0.009991008081655976
0.009991008081679789
0.009991008081659045
0.009991008081670522
0.009991008083431355
0.009991008137763583
0.009991010566421698
0.009991139381184651
0.02147557424986169
0.01035785005433477
0.01023156445118953
0.01022640038753206
0.01021515146567352
0.01021918940208121
0.01021494834295228
0.01021690032304983
0.01021705549259399
0.01021824883027981
0.01021906665993472
0.01021950852308271
0.01022081762098421
0.01022258788768151
0.01022409355602866
0.01022584494894612
0.01022852007477716
0.01023087985350976
0.01023348655553128
0.01023673508074192
0.01023897404904005
0.01024214157313096
0.01024503305480076
0.01024720406215507
0.01025026792150992
0.01025231236821436
0.01025529094417327
0.01025822428646138
0.0102609801654959
0.01026494478366003
0.01026802245745006
0.0102725585950455
0.01027606696614976
0.01028070923585832
0.0102846786687735
0.01028975225204356
0.01029389320758296
0.01029738875776754
0.01029845550193263
0.01029440808333606
0.01028250822256778
0.01026098698960088
0.01022960514395333
0.0101907751817323
0.01014874517560472
0.01010844929911962
0.01007377153881175
0.01004634637082587
0.01002588102071496
0.01001133710437939
0.0100014498212341
0.009994224296862824
0.009992015474293323
0.009991328538232381
0.009991108252825044
0.009991037832056579
0.009991016297781615
0.009991010168632828
0.009991008566884051
0.009991008184647616
0.009991008101579171
0.00999100808489446
0.009991008082058999
0.009991008081645292
0.009991008081602104
0.009991008081568815
0.009991008081619358
0.009991008081605851
0.009991008081608467
0.009991008081619459
0.009991008081614622
0.009991008081639248
0.009991008081621443
0.009991008081643016
0.009991008081641949
0.009991008081673466
0.009991008084203242
0.009991008183749574
0.009991012991999022
0.009991270018307134
0.0218093707326802
0.01039062483272775
0.01023819624540986
0.0102291878853197
0.01021747471987695
0.01022124881315829
0.01021682470117364
0.01021865599194326
0.01021861010992415
0.010219704522528
0.01022045083449585
0.01022097344407773
0.01022206498866649
0.01022380826203843
0.01022545349346575
0.01022698650932585
0.01022972817109438
0.01023237125405354
0.01023473629597912
0.01023810527463887
0.01024073510266835
0.01024357037936319
0.0102467657447851
0.01024867991059517
0.01025172615933328
0.01025409948217615
0.01025670898536722
0.01026019278044005
0.01026269138471798
0.0102669777092629
0.01027032805744867
0.01027519310965915
0.01027983746036431
0.01028496353006822
0.01029068998329102
0.01029705866811367
0.01030305747892793
0.01030940409253482
0.01031331072303072
0.01031205825325981
0.01030310485450763
0.01028374485026991
0.01025294714024514
0.01021259939671154
0.01016736767263665
0.01012287779740348
0.01008387769902238
0.01005309802609623
0.01003074655657417
0.01001445607084197
0.01000307861428243
0.009995150982195316
0.00999226292233529
0.009991399318242219
0.009991129038315786
0.00999104382042891
0.009991017923355713
0.009991010575180924
0.00999100865958169
0.009991008203652164
0.009991008104945357
0.009991008085630863
0.009991008082153773
0.009991008081690875
0.009991008081589158
0.009991008081581468
0.009991008081615425
0.009991008081593474
0.009991008081618487
0.009991008081627855
0.00999100808161598
0.009991008081647129
0.009991008081615869
0.009991008081638338
0.009991008081636313
0.009991008081688478
0.00999100808568845
0.009991008267682316
0.009991016354532136
0.009991383099220902
0.0221165330186669
0.01042826155220983
0.01024634278677854
0.01023418617690811
0.01022253159293756
0.01022523567990448
0.01022070454783637
0.010222153106516
0.01022198488027445
0.0102229756569214
0.01022361350285164
0.0102241540866662
0.01022508038183652
0.01022675797290524
0.0102284191387868
0.01022996363618057
0.01023266770445374
0.0102354287237199
0.010237815623377
0.01024124796136004
0.01024420452227216
0.01024680935767745
0.01024995326475286
0.01025204512381044
0.01025478299846522
0.01025744887086464
0.01025957920668715
0.010262929774864
0.01026539504621648
0.0102693354471101
0.01027317211212385
0.01027771075757633
0.01028318593163799
0.01028827137522877
0.01029530109768745
0.01030211141440257
0.01031037749299229
0.01031866696105272
0.0103246385124046
0.01032697097011416
0.01032157823031173
0.01030450277836755
0.01027441652952776
0.01023304348381451
0.01018516880136933
0.01013706954058357
0.0100941969987602
0.0100597762657232
0.01003455513921327
0.01001745884673222
0.01000487898643364
0.009996128977697827
0.009992514189795318
0.009991468198497746
0.009991148592884058
0.009991049330415547
0.009991019395088929
0.009991010936515223
0.009991008740259768
0.009991008220021531
0.009991008108048156
0.009991008086149564
0.009991008082264507
0.009991008081637847
0.009991008081640834
0.009991008081568331
0.009991008081574089
0.009991008081581029
0.009991008081656682
0.009991008081634556
0.009991008081663708
0.00999100808162238
0.009991008081613184
0.009991008081634669
0.009991008081635923
0.00999100808179568
0.009991008089338246
0.009991008395504885
0.009991020657548555
0.009991497279434864
0.02239584395207222
0.01047485293997413
0.01025735239387014
0.01024204286181956
0.01023005366143576
0.01023119563753188
0.01022670084741123
0.01022751405849457
0.01022717773796085
0.01022792401680612
0.01022841939722104
0.01022886891060898
0.01022944298774166
0.01023101622724141
0.01023260467550093
0.01023407586313046
0.01023678989726897
0.01023963411174157
0.01024201691574048
0.01024552916063471
0.01024854605566779
0.01025090556094253
0.01025412192255537
0.01025629803250714
0.01025872513356551
0.01026121855951778
0.01026290946988795
0.01026605115347422
0.01026844157281737
0.01027208666897879
0.01027606957467715
0.01028022459481399
0.01028578154663774
0.01029083327523158
0.01029822025076358
0.01030539552234016
0.01031514882813195
0.0103247234258092
0.01033318770020923
0.01033885683508617
0.01033628611760595
0.0103215464864428
0.01029258882580273
0.0102506851087101
0.01020067461407566
0.01014945577619327
0.01010333164987239
0.01006601968047569
0.01003827102548501
0.01001935009303003
0.0100066388876199
0.009997068079615191
0.009992745573555294
0.0099915287436264
0.009991165089420499
0.009991053764890651
0.009991020507630554
0.009991011192111505
0.009991008793290708
0.009991008229885167
0.009991008109632766
0.009991008086332531
0.009991008082246525
0.009991008081644662
0.009991008081590327
0.009991008081582676
0.009991008081573344
0.009991008081580181
0.009991008081602236
0.009991008081616962
0.009991008081635631
0.009991008081623768
0.009991008081633255
0.009991008081631321
0.009991008081633323
0.009991008081959884
0.009991008095173353
0.009991008588645101
0.009991026317780661
0.009991618648476199
0.0226442506655332
0.01053159548687885
0.01027182254562181
0.01025332151693911
0.01024059938302003
0.01024000092672547
0.01023506566768876
0.01023500399973415
0.01023445995300005
0.01023491051989359
0.01023508705498005
0.01023538222932849
0.01023567606459865
0.01023700968507935
0.01023844531809302
0.01023999520120885
0.01024249476100476
0.01024538544872631
0.01024795005195158
0.01025138233091027
0.01025447366009206
0.01025679925545954
0.01025990582057335
0.01026206475907338
0.01026406149567374
0.01026643631512993
0.01026782324094817
0.01027073168252315
0.01027309936215716
0.01027614265707122
0.01027987699143699
0.01028347020685874
0.0102888639281942
0.01029369639752549
0.01030109833356801
0.01030852211722558
0.01031880625494274
0.01032925091866236
0.01034000672371417
0.01034793995632155
0.01034796166481679
0.01033537883552584
0.01030772229478081
0.01026559362788091
0.01021373053685848
0.01015972644216553
0.01011069568386919
0.01007102905070972
0.01004145265483527
0.01002106357085521
0.01000774773160009
0.009997850279098651
0.009992917181396565
0.009991568606263523
0.009991174653943417
0.009991056042661789
0.009991021028001928
0.009991011302205394
0.009991008813611115
0.009991008232934473
0.009991008109875779
0.009991008086336144
0.009991008082240542
0.009991008081612877
0.00999100808156113
0.00999100808164987
0.009991008081582764
0.009991008081605609
0.009991008081595745
0.009991008081613861
0.009991008081633964
0.009991008081647558
0.009991008081628455
0.009991008081643873
0.009991008081639689
0.00999100808224427
0.009991008104789848
0.009991008871309805
0.009991033472797724
0.009991744736603962
0.02286006491528703
0.01059940326234795
0.01029107315906703
0.01026806867127131
0.01025514871063316
0.01025121524241271
0.01024609472679277
0.01024471794614488
0.01024389611229355
0.01024384235096301
0.01024347740893486
0.01024346859996713
0.01024339738454394
0.01024450224406462
0.01024568466285871
0.01024715008397937
0.01024954937076165
0.01025235762962582
0.01025496865722217
0.01025828101823814
0.01026137058250626
0.01026374538900296
0.01026676238916606
0.01026877556651053
0.01027041840649476
0.01027259030503879
0.01027393274377332
0.01027648954717887
0.01027853817315923
0.01028107596997954
0.01028454928259837
0.01028754953817875
0.01029251830852812
0.01029710259226444
0.01030396874692683
0.01031163563785549
0.0103220243416557
0.01033293328145926
0.01034540026681556
0.01035522110911516
0.01035698514540786
0.01034659084823979
0.01032032949722684
0.01027798579374283
0.01022435198095371
0.01016754109441549
0.01011577078622214
0.0100739964169742
0.01004329820623743
0.01002193944216384
0.01000815078768088
0.009998274133004572
0.009993000652025829
0.009991585656821176
0.009991178072962801
0.009991056640193044
0.009991021080201791
0.009991011280522323
0.009991008799431572
0.009991008227787502
0.009991008108527261
0.009991008086014041
0.009991008082209801
0.009991008081626097
0.009991008081544506
0.009991008081616083
0.009991008081642371
0.009991008081609328
0.00999100808159752
0.009991008081648928
0.009991008081632424
0.009991008081642766
0.009991008081627721
0.009991008081670211
0.009991008081650175
0.009991008082789243
0.009991008120215835
0.009991009275816221
0.009991042387904839
0.009991876635990654
0.02303482500202208
0.01068076398846209
0.01031703025701954
0.01028863492370444
0.01027329180647424
0.010265779300592
0.01026010555105318
0.01025716944619741
0.01025578288244479
0.01025491262461892
0.0102538251434541
0.01025325608778323
0.01025279135382206
0.01025345249280324
0.01025437235280156
0.01025568752741493
0.0102578643351625
0.01026063569726664
0.01026324207550274
0.01026640175454549
0.01026934193961953
0.01027166784839575
0.01027447760396132
0.01027642991477207
0.01027781863633959
0.01027964624783625
0.0102808537227238
0.01028311491050831
0.01028490892340061
0.01028698641808264
0.01029004953488168
0.01029270487734016
0.01029712859103249
0.01030129353361211
0.01030751306855
0.01031483065025551
0.01032511766160558
0.01033638476755845
0.01034968611205252
0.01036083570155502
0.01036403315943711
0.0103548270920125
0.01032861860665527
0.01028550617918407
0.01023038596989081
0.01017182411842885
0.01011834408161112
0.01007542058119342
0.01004405549282391
0.01002226294803418
0.0100082707391067
0.00999841248944257
0.009993007840833408
0.009991579275824308
0.009991174024392244
0.009991054898815608
0.009991020452767107
0.009991011086057752
0.009991008746438053
0.009991008214938368
0.009991008105637475
0.009991008085421743
0.009991008082083327
0.009991008081613796
0.009991008081537274
0.009991008081603926
0.009991008081598519
0.00999100808164792
0.00999100808161355
0.009991008081610549
0.009991008081648801
0.009991008081645622
0.009991008081665607
0.009991008081659616
0.009991008081690062
0.009991008083754326
0.00999100814453086
0.009991009845082256
0.009991053371587094
0.009992014971499305
0.02315918538691904
0.01078055946698353
0.01035252065946617
0.01031609198660311
0.01029574925901135
0.01028418440759081
0.01027762253726604
0.0102724674464962
0.01027011831669595
0.01026814199775983
0.0102660188102119
0.01026463778088224
0.01026365387560586
0.01026376154128683
0.01026424306903164
0.01026530822519359
0.01026725559447349
0.01026984991984469
0.01027232248529761
0.01027534422765953
0.01027805177580529
0.01028035647242552
0.01028276407450542
0.01028452327911882
0.01028567636761384
0.01028727548605855
0.01028827126198152
0.0102901077543305
0.01029168547605048
0.01029340256157698
0.01029590540456838
0.01029831954064873
0.01030225412925214
0.01030571745114521
0.01031143066004575
0.01031810807536158
0.01032799128817085
0.01033919430669955
0.01035276121280362
0.01036446296809118
0.01036867867443561
0.01036021029781687
0.01033391407589863
0.01028979630221686
0.01023348808201655
0.01017383429737654
0.01011936590555621
0.01007564866410214
0.01004380393774226
0.01002189454976783
0.01000796074599134
0.009998140957225923
0.009992905127081423
0.009991543970970703
0.009991162083408266
0.009991050994109549
0.009991019261591391
0.009991010754233679
0.009991008662853847
0.009991008195939054
0.00999100810174827
0.009991008084693696
0.009991008081956295
0.009991008081579981
0.009991008081518604
0.0099910080815997
0.009991008081591526
0.009991008081612794
0.009991008081597136
0.009991008081600838
0.009991008081635526
0.00999100808167042
0.009991008081664468
0.009991008081658086
0.009991008081769406
0.009991008085350942
0.009991008182200721
0.009991010633892305
0.009991066764994352
0.009992160233258945
0.0232264140350497
0.01090559028741524
0.01040030740670373
0.0103522872404946
0.01032329019172544
0.01030704456574861
0.01029887713096538
0.01029063556897978
0.01028692307884483
0.01028339138935192
0.01027989376403685
0.01027750464598423
0.01027583088344798
0.0102751777318863
0.01027520362662508
0.01027585593605955
0.01027748880744377
0.01027989685613669
0.01028202414359415
0.01028499332900831
0.01028719071195381
0.01028948703435625
0.01029130306984538
0.01029291105235347
0.01029374670711623
0.0102950108814746
0.01029575232994265
0.01029729154633923
0.01029849147898799
0.01029988279344243
0.01030206350482195
0.01030397378401577
0.01030735838752372
0.01031041722281474
0.01031546203503191
0.01032161575242196
0.01033121390829813
0.01034251071489226
0.01035659104994684
0.0103688131672355
0.01037334374906228
0.01036427287018694
0.01033704200530505
0.01029213556781498
0.01023435506216869
0.01017301310967096
0.01011763683651231
0.01007372156807604
0.01004198404990631
0.01002071448074374
0.01000721967853474
0.009997495216824085
0.009992716128657014
0.009991486460218952
0.009991144068089248
0.009991045434004716
0.009991017646448679
0.009991010323983113
0.009991008558904288
0.009991008173306082
0.009991008097324032
0.009991008083891978
0.009991008081818775
0.009991008081569358
0.009991008081530655
0.009991008081598529
0.00999100808159476
0.009991008081609071
0.009991008081599511
0.009991008081605345
0.009991008081633097
0.009991008081662976
0.009991008081662754
0.009991008081661052
0.009991008081885067
0.009991008088043115
0.009991008239770787
0.009991011712906174
0.009991082965955649
0.009992312955447167
0.02322958382719271
0.01106366121870912
0.01046333708719361
0.01039750427164031
0.0103569390207739
0.01033450672229715
0.01032360328771545
0.01031156443804507
0.01030573662697052
0.0103002471976427
0.01029504710158014
0.01029150858193229
0.01028891793044365
0.01028739239365165
0.01028693129163319
0.01028707111372353
0.01028831619003509
0.01029053504494233
0.01029210771351548
0.01029499505487707
0.01029655209044191
0.01029884898170208
0.01029991726931017
0.0103013990956869
0.01030185860965288
0.01030284012109429
0.01030328817918232
0.01030451987813746
0.01030548547021293
0.01030672503162304
0.01030858793947475
0.01031032048358882
0.01031316291661555
0.01031605620493474
0.01032091598537824
0.01032689832463142
0.01033619306064578
0.01034733882980359
0.0103611685203511
0.01037311388815695
0.01037734963164245
0.01036711462773741
0.01033833977891409
0.01029047893119516
0.01023062719417866
0.0101685693584467
0.01011336892282575
0.01007011844712893
0.01003911485719899
0.01001892912716349
0.01000607647021603
0.009996585151216967
0.009992466198246399
0.009991413735152801
0.009991122074121164
0.009991038864368348
0.009991015799385973
0.009991009847804599
0.009991008447613425
0.009991008149855854
0.009991008092857389
0.009991008083132864
0.009991008081739552
0.009991008081577296
0.009991008081542326
0.009991008081600177
0.00999100808161983
0.009991008081599343
0.00999100808160659
0.009991008081622335
0.00999100808163445
0.009991008081664449
0.009991008081682715
0.00999100808167145
0.009991008082090443
0.009991008092566358
0.00999100832666217
0.00999101317219893
0.009991102426632753
0.009992473583515489
0.02310185639133305
0.01126460858642968
0.01054612787797082
0.0104554043972901
0.0103972664507827
0.01036618225950052
0.01035141872971203
0.01033442322195977
0.01032603522696013
0.01031800810327398
0.01031102356266472
0.01030615389651325
0.01030249633324276
0.01030004968289086
0.01029918192347363
0.01029877611834645
0.01029961957993772
0.01030162106607927
0.01030264173636345
0.01030535067343892
0.01030632694556597
0.01030848957299561
0.01030894566523259
0.01031028930729395
0.0103104338681966
0.01031119550601414
0.01031151592058152
0.01031250400705767
0.01031332459338432
0.0103145558319904
0.01031614717796867
0.01031800260494573
0.0103204541443492
0.01032295010576873
0.01032694684428454
0.01033240368019592
0.01034134798512344
0.01035255532779575
0.0103656954443369
0.01037718588407701
0.01038020751337793
0.01036770256781162
0.01033564514915448
0.01028526217486044
0.01022369296981162
0.01016126081596979
0.01010681175402189
0.01006481167093074
0.01003544408907887
0.01001663303756492
0.01000410938094253
0.009995539301988951
0.00999218842126651
0.009991334506886032
0.009991098585535155
0.009991032014679734
0.009991013926233704
0.00999100937910438
0.009991008341329644
0.009991008128070812
0.009991008088856536
0.009991008082537042
0.009991008081657479
0.009991008081526254
0.009991008081583215
0.009991008081584329
0.00999100808161304
0.009991008081611193
0.009991008081646956
0.009991008081645781
0.009991008081650075
0.00999100808166253
0.009991008081668222
0.009991008081700652
0.009991008082479972
0.009991008099981356
0.009991008455951366
0.009991015124095523
0.009991125647861082
0.009992642509269397
0.02279125503960257
0.01150278260526029
0.01065537288903538
0.01052729339316983
0.01044159678166054
0.0104009247249058
0.01038094831564784
0.01035862388063124
0.01034690449702816
0.0103361510281083
0.0103273286166067
0.01032109543868714
0.01031631471566422
0.01031313966811277
0.01031192518435556
0.01031100723044412
0.01031159833356082
0.0103132745394608
0.01031391362037869
0.01031628766942056
0.01031693487033133
0.01031874906791538
0.01031880155727911
0.01031995320810269
0.01031983443756762
0.01032032551871031
0.01032077422224048
0.01032132153940012
0.01032213153660066
0.010323224765619
0.01032413337272151
0.01032547896606325
0.0103273812075935
0.01032956425417858
0.01033279895119321
0.01033791532588252
0.01034667104264118
0.01035796361199419
0.01037048506831014
0.01038075539332531
0.01038190419244957
0.01036599826335171
0.01033013670232115
0.01027652459820728
0.01021335571825814
0.01015114831398041
0.01009811563123484
0.01005812238218438
0.01003126140378893
0.01001388131794561
0.01000215607037939
0.009994484138328671
0.009991914348880833
0.009991257033573604
0.009991075931670099
0.009991025552160518
0.009991012207413845
0.009991008962211161
0.0099910082499553
0.009991008110078664
0.009991008085736202
0.009991008082042032
0.009991008081543006
0.009991008081496635
0.009991008081582854
0.009991008081571376
0.009991008081634254
0.009991008081632778
0.009991008081632948
0.009991008081632988
0.009991008081648335
0.0099910080816678
0.009991008081667221
0.009991008081726599
0.009991008083174446
0.00999100811207022
0.009991008646191412
0.009991017711419277
0.009991153197840497
0.009992819994243635
0.02233318722031961
0.01176650513113026
0.01079760635382466
0.01060983999436113
0.01048929314009168
0.01043820240309026
0.01041090607602995
0.0103828374639627
0.01036775064123848
0.01035408501471122
0.0103438110821282
0.01033620954401269
0.01033041698768939
0.01032683786339378
0.01032535379371932
0.01032402780336011
0.01032457183794212
0.0103258242569526
0.01032623883937635
0.01032809643549957
0.01032850170843237
0.01032985353884285
0.01032959664657151
0.01033028239775058
0.01032995199389503
0.01032993020870254
0.01033019729336612
0.01033002160830242
0.01033018603375042
0.01033115419843878
0.01033156894032095
0.01033294173122057
0.01033378886740609
0.01033592865073473
0.01033878239927526
0.0103436294013652
0.01035214747434434
0.01036353636169641
0.01037487262070581
0.01038343231174104
0.01038157310335771
0.01036162069334721
0.01032121849228467
0.01026422998132184
0.01019977574731822
0.01013848663484222
0.01008778289627802
0.01005115155283259
0.01002655741114471
0.01001036089207395
0.01000030991764225
0.009993527660335689
0.009991668351303952
0.009991187690190124
0.009991055907154579
0.009991019973494959
0.009991010768943761
0.009991008625465541
0.009991008179016709
0.009991008096751366
0.009991008083563057
0.009991008081722071
0.009991008081489996
0.00999100808150607
0.009991008081595658
0.009991008081608466
0.0099910080816065
0.009991008081634955
0.009991008081631447
0.009991008081631628
0.009991008081652911
0.009991008081660436
0.009991008081668229
0.009991008081803567
0.009991008084408717
0.009991008131424194
0.00999100892261222
0.009991021106741466
0.009991185678341327
0.009993006183834223
0.02174861450492599
0.01205831472691983
0.01091920860393479
0.01070060415081502
0.01053718166414338
0.01047582792414014
0.01043930207120702
0.01040627299671597
0.01038792388933735
0.01037166920465479
0.01036019083264209
0.01035153493546617
0.01034507401557029
0.01034130149935087
0.01033947713337963
0.01033800758224885
0.01033859340205464
0.01033920689797084
0.0103395193835616
0.01034052590999673
0.01034052918316476
0.01034117582858543
0.01034060630899529
0.01034041146154364
0.01033969204920337
0.01033895991198789
0.01033891740352957
0.01033822459539552
0.01033813492152936
0.01033874632349495
0.01033880295795921
0.01033951494430145
0.01033996130980008
0.01034108969807048
0.01034416707318339
0.01034892580337902
0.01035732150529621
0.01036894986367327
0.01038023798028034
0.01038602675906633
0.01037924041868841
0.01035404307579402
0.0103086201687441
0.01024839922214653
0.0101833788171444
0.01012404765294996
0.01007712041309079
0.01004359149372049
0.01002133577695203
0.01000727465748534
0.009998186897216224
0.009992741477829033
0.00999146444279622
0.009991130276684088
0.009991039572610499
0.00999101554999081
0.009991009669669424
0.009991008378895175
0.009991008129524302
0.009991008087932315
0.009991008082122081
0.009991008081510006
0.009991008081469147
0.009991008081564636
0.009991008081565445
0.009991008081568782
0.009991008081613149
0.009991008081638929
0.009991008081631848
0.0099910080816319
0.009991008081669649
0.009991008081661508
0.009991008081673075
0.009991008081928252
0.009991008086536605
0.009991008162022082
0.009991009319625618
0.009991025521593007
0.00999122373762644
0.009993201026208395
0.02108698818942038
0.01239165605404985
0.01098664150252416
0.01079543572389389
0.01058389608373858
0.01051095056431434
0.01046613973781744
0.01042755315255327
0.01040728594698598
0.01038838874517393
0.0103766392535105
0.01036697580961912
0.01036041471265473
0.01035648668460329
0.01035422302858311
0.01035270560956581
0.01035314708883435
0.01035284771409103
0.01035289963289723
0.01035284021350158
0.01035229025531413
0.01035208448508437
0.01035103851230501
0.01034996161893489
0.0103491441879773
0.01034793109741469
0.01034727954957511
0.010346370061609
0.01034582155481232
0.01034588321146578
0.01034576330705185
0.01034613558274438
0.01034612505543886
0.01034701025054854
0.0103497594614151
0.01035511536356869
0.01036330658160696
0.01037438856815599
0.01038400014375781
0.01038701474754671
0.01037491889242088
0.01034318602587156
0.01029257306690069
0.01022977610452795
0.01016548055628678
0.01010921140429917
0.01006577479848584
0.01003568810631275
0.01001637703256973
0.01000443439387859
0.009995685989206268
0.009992150690796103
0.009991306812430619
0.009991086056440069
0.009991027249927807
0.009991012330854634
0.009991008905634372
0.009991008216569964
0.009991008098729246
0.00999100808292205
0.009991008081418846
0.009991008081394392
0.009991008081472399
0.009991008081563521
0.009991008081564931
0.009991008081573605
0.009991008081642067
0.009991008081659951
0.009991008081660058
0.00999100808166193
0.009991008081668348
0.009991008081660948
0.009991008081692081
0.009991008082183058
0.009991008090185936
0.009991008209645836
0.009991009882586074
0.009991031204381731
0.0099912680264111
0.009993404228757146
0.02037600941979048
0.01277620068491021
0.01104459595825914
0.01085461078052019
0.01062392342458817
0.01054193433544168
0.01048880253692184
0.01044669260954046
0.01042474344990728
0.01040424150111645
0.01039254836055939
0.01038223263475745
0.01037600826942221
0.0103717574590394
0.01036905711395763
0.01036760099476807
0.01036731838438282
0.01036626870425387
0.01036585199842578
0.01036485972497934
0.01036377506646893
0.01036264051564876
0.01036136450702201
0.01035963633856739
0.01035844243440693
0.01035672061417714
0.01035547893191102
0.0103544104895676
0.01035339206990622
0.01035210897389419
0.01035135819531
0.01035084611063998
0.01035080924930138
0.01035165973964396
0.01035405836240441
0.0103596047459712
0.01036849919986278
0.0103788842668134
0.01038707927041441
0.01038597363656459
0.01036792666967519
0.01032972069023446
0.0102739667204778
0.01020924483806404
0.01014622117691181
0.01009349318691318
0.01005426939766843
0.01002832720009917
0.01001186672530842
0.01000094466197983
0.009993933564134357
0.009991725457564188
0.009991192728980056
0.009991054308859063
0.009991018668241175
0.009991010192197926
0.009991008427229338
0.009991008122291489
0.009991008082996713
0.009991008080569545
0.009991008081146068
0.009991008081396411
0.009991008081594534
0.009991008081595568
0.009991008081601051
0.009991008081623795
0.009991008081626732
0.009991008081650423
0.009991008081651077
0.00999100808166235
0.009991008081674248
0.009991008081668541
0.009991008081716438
0.009991008082666272
0.009991008096264718
0.009991008282600092
0.009991010670051148
0.009991038440215684
0.009991319165939013
0.009993615196769784
0.01966758389830129
0.01317986938088895
0.01109120201102816
0.01088053087922777
0.01064751110649429
0.01056405852282698
0.01050572148802564
0.01046240856834938
0.01044031078171176
0.01041862837409852
0.01040782893792651
0.01039736651923591
0.01039178436174018
0.01038706078832474
0.01038424281977531
0.01038256976553219
0.01038145094741451
0.01037974514501917
0.01037843689689855
0.01037673969103272
0.0103751980567721
0.01037290092808294
0.010371146509699
0.01036871399058585
0.01036713355314861
0.01036482724076379
0.0103623789930103
0.01036083954388373
0.01035999789626161
0.0103592067021059
0.01035762561193627
0.01035649825606795
0.01035564923421868
0.01035620628803271
0.01035912566764691
0.01036532130867432
0.01037453629101633
0.01038334154358112
0.01038897384041441
0.01038214271049429
0.01035700225135742
0.01031203180764556
0.01025195287812968
0.01018653671338777
0.01012610913937832
0.01007787626395914
0.0100439498282074
0.01002162869493886
0.01000710620640543
0.00999861007850388
0.009992740381741323
0.009991437553117065
0.009991115072312737
0.009991033103274417
0.009991013186156658
0.009991008910424586
0.009991008166531064
0.00999100807740875
0.009991008076525686
0.00999100807993189
0.009991008081098299
0.009991008081425386
0.00999100808155203
0.009991008081565642
0.009991008081635871
0.009991008081624736
0.00999100808162543
0.009991008081650904
0.009991008081650937
0.009991008081660176
0.009991008081671804
0.009991008081684825
0.009991008081776342
0.009991008083485199
0.009991008106247364
0.009991008392665451
0.009991011756610243
0.009991047549709777