/*--------------------------------*- C++ -*----------------------------------*\
| =========                 |                                                 |
| \\      /  F ield         | OpenFOAM: The Open Source CFD Toolbox           |
|  \\    /   O peration     | Version:  v1912                                 |
|   \\  /    A nd           | Website:  www.openfoam.com                      |
|    \\/     M anipulation  |                                                 |
\*---------------------------------------------------------------------------*/
FoamFile
{
    version     2.0;
    format      ascii;
    class       volScalarField;
    location    "0.001";
    object      nut;
}
// * * * * * * * * * * * * * * * * * * * * * * * * * * * * * * * * * * * * * //

dimensions      [0 2 -1 0 0 0 0];


internalField   nonuniform List<scalar> 
16000
(
1.265078956723544e-07
2.602047166437404e-05
1.828815325898595e-05
2.507460311773239e-05
3.01098568260193e-05
2.073327347644607e-05
3.10616229425468e-05
2.514794156754998e-05
3.011632122673657e-05
2.847436924609257e-05
2.947855432972637e-05
2.956321328045372e-05
2.998461428215445e-05
3.034572922803162e-05
3.07940376188728e-05
3.122253207817065e-05
3.175616121052176e-05
3.225645646131835e-05
3.286708599781133e-05
3.344428641239019e-05
3.409762263603271e-05
3.474038665312917e-05
3.540924589878728e-05
3.608704216481693e-05
3.677775931429908e-05
3.750208006329809e-05
3.826384490233069e-05
3.909869672683758e-05
4.002372735521944e-05
4.108092505530745e-05
4.226552166400646e-05
4.357942766392672e-05
4.495172665901449e-05
4.634367792140438e-05
4.788814365314559e-05
4.971988332487003e-05
5.214960283160837e-05
5.52965202475104e-05
5.743342592194962e-05
5.574964237309939e-05
5.071620246072111e-05
4.622924703604896e-05
4.494959017513403e-05
4.802239184842761e-05
5.691880433010486e-05
7.499565195904987e-05
0.0001096858377850616
0.0001776138305185774
0.0003173936596817102
0.0006239875242369907
0.001000360672957782
0.001000062381924241
0.0009999711920229647
0.0009999419509335702
0.0009999323803836066
0.0009999292946785854
0.0009999283556566098
0.0009999280988535182
0.0009999280420532747
0.0009999280320685529
0.0009999280361571408
0.0009999280436184467
0.0009999280471504914
0.0009999280522165802
0.0009999280566415252
0.0009999280584490659
0.0009999280590968353
0.0009999280592621329
0.0009999280602727043
0.000999928061094051
0.0009999280601459774
0.0009999280629801877
0.0009999280694280013
0.0009999280675359941
0.0009999280642237179
0.0009999280632609076
0.0009999280664883647
0.0009999280616176808
0.0009999281093904973
0.0009999291330006911
1.269262305211103e-07
2.231819853945779e-05
1.663926893922616e-05
2.344024903309804e-05
2.703810143893477e-05
1.967328705233189e-05
2.796068845814161e-05
2.325215672390353e-05
2.798772884217429e-05
2.643127472236814e-05
2.745216821707037e-05
2.752797393533136e-05
2.796452572940903e-05
2.83469265864046e-05
2.880235129556489e-05
2.925289660373832e-05
2.97795120987721e-05
3.029055661568845e-05
3.089181773525014e-05
3.149485075333411e-05
3.217914629532709e-05
3.28800267089553e-05
3.36283975682663e-05
3.440381788683514e-05
3.5208387522366e-05
3.605884810123788e-05
3.695361429436049e-05
3.793068702578025e-05
3.899617460521668e-05
4.019514737443335e-05
4.151401103199452e-05
4.295390627831349e-05
4.445094337613627e-05
4.594484119718542e-05
4.747975801226351e-05
4.927518300193127e-05
5.181777209481708e-05
5.537067950346011e-05
5.83033175926517e-05
5.656711725906221e-05
4.993044437355967e-05
4.371888608476453e-05
4.100336851211902e-05
4.250872533457371e-05
4.915784135923193e-05
6.347969496631489e-05
9.135767828446825e-05
0.0001460508547683866
0.0002583581646598375
0.0005038872707580644
0.001000513554487032
0.001000107972880527
0.0009999842933368309
0.0009999458519027509
0.000999933544129687
0.0009999296254711799
0.0009999284394110902
0.0009999281154623168
0.0009999280414941451
0.000999928025820603
0.0009999280322189191
0.0009999280413854632
0.000999928043601034
0.0009999280496637169
0.0009999280551543247
0.0009999280551100834
0.0009999280575359187
0.0009999280592863059
0.0009999280605493513
0.0009999280595974519
0.0009999280599858307
0.00099992806280468
0.0009999280664450168
0.000999928065707959
0.0009999280629424644
0.0009999280630607877
0.000999928064246147
0.0009999280627390806
0.0009999281120198988
0.0009999301801115624
1.273497316386684e-07
1.926806076489344e-05
1.507114195945417e-05
2.148524245538942e-05
2.424232438100239e-05
1.872270780618235e-05
2.500816685786e-05
2.156264966922065e-05
2.568069453935104e-05
2.441911426579999e-05
2.535668770034734e-05
2.544843773489575e-05
2.58813152054725e-05
2.627875874729961e-05
2.673148853847348e-05
2.719345312038138e-05
2.769109743055003e-05
2.819803365789093e-05
2.876718776206057e-05
2.936835582131386e-05
3.005855711867453e-05
3.078407438742562e-05
3.158530756925575e-05
3.242865188977786e-05
3.332376313739978e-05
3.427396223358334e-05
3.527886945794142e-05
3.637447418054042e-05
3.755403401640275e-05
3.886651572473362e-05
4.029469574714164e-05
4.184922878815534e-05
4.346320982065799e-05
4.506943360262453e-05
4.667251652988719e-05
4.852019168098502e-05
5.125249584086471e-05
5.55912945029467e-05
6.043596813879725e-05
5.996060054113166e-05
5.154094600312431e-05
4.297607449844066e-05
3.858485943344438e-05
3.864699513759732e-05
4.349554339858601e-05
5.497485861240882e-05
7.779416259650967e-05
0.000122749207429441
0.0002149749639729243
0.0004161033299223668
0.0008869285424629993
0.001000160148911335
0.0009999981366681796
0.0009999498102263478
0.0009999347046605758
0.0009999299580228064
0.0009999285287092842
0.0009999281372310902
0.0009999280449947061
0.0009999280239221171
0.0009999280321235768
0.000999928040648526
0.0009999280406879077
0.0009999280488003424
0.0009999280550910595
0.0009999280546841842
0.0009999280553053241
0.0009999280584926308
0.0009999280643044036
0.0009999280593389389
0.0009999280624316464
0.000999928063391838
0.0009999280621050017
0.0009999280637188132
0.0009999280626498863
0.0009999280631059473
0.0009999280630268493
0.0009999280634670413
0.0009999281231445507
0.000999931081407649
1.277702829628562e-07
1.651039822180051e-05
1.364703071791366e-05
1.944587499444393e-05
2.182927693185659e-05
1.789587984588498e-05
2.250107752854245e-05
2.01898351903217e-05
2.349225899958857e-05
2.26241050587537e-05
2.340804464446941e-05
2.353158197419532e-05
2.395060011975374e-05
2.435892903256397e-05
2.480066426156446e-05
2.527068579922255e-05
2.57330295813724e-05
2.623122992422724e-05
2.676201250393403e-05
2.734857809819638e-05
2.803153038382695e-05
2.876404441827398e-05
2.960068528311173e-05
3.049363749358697e-05
3.146423554402045e-05
3.250164448771183e-05
3.361516726974558e-05
3.483111954298189e-05
3.61468587177642e-05
3.760066356603858e-05
3.918126619454369e-05
4.087984550207838e-05
4.263602033412877e-05
4.433393174313989e-05
4.594169823215211e-05
4.76664072080947e-05
5.025973903224408e-05
5.495102224015205e-05
6.181387553672378e-05
6.422753977467483e-05
5.453366374844916e-05
4.321990673027565e-05
3.706726686343031e-05
3.586115450243267e-05
3.931288935880638e-05
4.869587482217258e-05
6.785765047933036e-05
0.0001058509323421002
0.0001838506733252396
0.0003538063826685741
0.0007512352149960839
0.001000215291664216
0.001000012199987738
0.0009999536630091179
0.0009999357959692221
0.0009999302639574984
0.0009999286096198847
0.0009999281558381297
0.000999928045273289
0.00099992802376299
0.0009999280311628329
0.0009999280372279698
0.0009999280378811288
0.0009999280446069735
0.0009999280542374684
0.0009999280543041514
0.0009999280550455493
0.0009999280565867377
0.0009999280627449115
0.0009999280596139626
0.0009999280642053704
0.0009999280620699134
0.0009999280616469991
0.0009999280634171957
0.0009999280623342226
0.0009999280647364373
0.0009999280629579175
0.0009999280658391171
0.0009999281654185976
0.0009999319948818923
1.281714927107667e-07
1.398887304636128e-05
1.231841330309829e-05
1.739506507504888e-05
1.967324687622977e-05
1.712005538265086e-05
2.034388097732812e-05
1.903222647504677e-05
2.143519321357227e-05
2.098510015356848e-05
2.158188492069631e-05
2.175094114889392e-05
2.215653900272165e-05
2.257791805427813e-05
2.300629501982742e-05
2.34818644055019e-05
2.390764004690119e-05
2.438989340953326e-05
2.48749056745749e-05
2.543289490057883e-05
2.609225694211264e-05
2.681066757642081e-05
2.765862185567903e-05
2.857228716174521e-05
2.958843162198559e-05
3.067906528013976e-05
3.187060172535208e-05
3.317935667371993e-05
3.461616866028728e-05
3.620860088120715e-05
3.795670035734559e-05
3.983244075345351e-05
4.177419559648622e-05
4.36005997351379e-05
4.521037713083344e-05
4.669886758484982e-05
4.887303261411954e-05
5.329753687764757e-05
6.135642059071497e-05
6.777675308514159e-05
5.822487950018736e-05
4.399897627163554e-05
3.608126571115401e-05
3.378552644106318e-05
3.61641883120083e-05
4.401161022409529e-05
6.05415684933967e-05
9.35803548262551e-05
0.0001615587228480806
0.0003097912589786461
0.0006566509993803543
0.001000268152968056
0.001000025153280226
0.0009999570536892407
0.0009999367193997586
0.0009999305111824629
0.000999928672062816
0.0009999281697536831
0.0009999280465575943
0.0009999280241905892
0.0009999280316072045
0.0009999280360169127
0.0009999280368728934
0.0009999280427592607
0.0009999280537644907
0.0009999280556968642
0.000999928055203781
0.0009999280562583224
0.0009999280586463642
0.0009999280602278114
0.0009999280615236624
0.0009999280620844688
0.0009999280614273909
0.0009999280631802375
0.0009999280621923309
0.0009999280633660678
0.0009999280632824994
0.0009999280664439022
0.0009999282146409875
0.0009999329624054973
1.28541269832627e-07
1.171883900671573e-05
1.110031273440835e-05
1.53824621011398e-05
1.770346019086256e-05
1.635852800242284e-05
1.845402200444821e-05
1.796588494926715e-05
1.950867854130164e-05
1.942204273840853e-05
1.983398898156374e-05
2.005180275864937e-05
2.044682136041533e-05
2.088445067676166e-05
2.130293268839862e-05
2.17823792003659e-05
2.217904332011778e-05
2.264264806886769e-05
2.308817989851924e-05
2.36149048585041e-05
2.42463039062189e-05
2.494524334718375e-05
2.579033621094574e-05
2.670767491319578e-05
2.774527261788028e-05
2.886367213105683e-05
3.010276037686342e-05
3.147275336243076e-05
3.300114896524519e-05
3.470937109130013e-05
3.661644772165831e-05
3.869115404226152e-05
4.087266639678066e-05
4.292795357835991e-05
4.464523253203933e-05
4.595468654991681e-05
4.762673123186329e-05
5.139772413172877e-05
5.961185498474661e-05
6.964715293653852e-05
6.191479687920828e-05
4.493365881279116e-05
3.536196360871683e-05
3.217443342929179e-05
3.375506754993275e-05
4.04992617600817e-05
5.516826380351963e-05
8.474586531567417e-05
0.0001458136893062856
0.0002792879766466813
0.0005923692316590575
0.001000312384848188
0.001000034760952233
0.000999959288043227
0.0009999372540151848
0.0009999306382759896
0.0009999287010613116
0.0009999281739984697
0.0009999280473511518
0.0009999280243974497
0.0009999280324932713
0.0009999280358398788
0.0009999280367939821
0.0009999280415988719
0.0009999280526761464
0.0009999280589127739
0.0009999280572672658
0.0009999280561045214
0.000999928057180821
0.0009999280628908479
0.0009999280610273023
0.0009999280624126267
0.0009999280615676192
0.0009999280640169931
0.000999928062207112
0.0009999280632468498
0.0009999280641525949
0.0009999280686230831
0.0009999282724617044
0.0009999339730564585
1.288867741118409e-07
9.789515328023178e-06
9.963786175639283e-06
1.342051655522735e-05
1.58569670578385e-05
1.557739418891422e-05
1.679396901389267e-05
1.691557314048457e-05
1.774351547706783e-05
1.791980207313375e-05
1.818240240792172e-05
1.844421445357649e-05
1.882835182996935e-05
1.927979378193913e-05
1.968932663141112e-05
2.016309298327163e-05
2.053993987984024e-05
2.098060830303756e-05
2.13966079740539e-05
2.189565172989634e-05
2.249800809097983e-05
2.318056880499085e-05
2.401468405855554e-05
2.492794127708425e-05
2.596914804948548e-05
2.709762511745915e-05
2.835847453995985e-05
2.975758529740317e-05
3.133826001893787e-05
3.312125461879349e-05
3.514817087365698e-05
3.740083932599865e-05
3.983769701460796e-05
4.22097666885898e-05
4.418628758905369e-05
4.548387405147467e-05
4.674248201025179e-05
4.978486728630864e-05
5.751369133598582e-05
6.977578084334772e-05
6.480151472974294e-05
4.560010568104704e-05
3.467473757411951e-05
3.083771795112028e-05
3.18702717135043e-05
3.786315042285765e-05
5.127008005759878e-05
7.853650381852138e-05
0.0001350949931825904
0.0002592037124670443
0.000551560290307315
0.001000336373103115
0.00100003943197171
0.0009999602424950256
0.0009999374446333692
0.0009999306705827994
0.0009999287016003557
0.0009999281706906649
0.0009999280458088866
0.0009999280226528223
0.0009999280273333174
0.000999928035738873
0.0009999280367963572
0.0009999280415097388
0.0009999280480224384
0.0009999280561352902
0.0009999280596736492
0.0009999280582129928
0.0009999280566968245
0.0009999280610883759
0.0009999280610975651
0.0009999280623572769
0.0009999280623280643
0.0009999280651279377
0.0009999280622874148
0.0009999280635054569
0.0009999280656289675
0.0009999280744882669
0.0009999283401222608
0.0009999350273717359
1.291799260904465e-07
8.178740320566869e-06
8.924773281657592e-06
1.154214869170577e-05
1.408293943643407e-05
1.47746688226519e-05
1.533269059358078e-05
1.587116891719388e-05
1.615418632014639e-05
1.648739486296072e-05
1.664911842548755e-05
1.694447184947207e-05
1.731583357725882e-05
1.7769683099815e-05
1.816890437153971e-05
1.86225190516265e-05
1.898399465907686e-05
1.939588321825194e-05
1.97918921358e-05
2.027045533879576e-05
2.084593527949164e-05
2.151829683185117e-05
2.23354421823333e-05
2.324353300554342e-05
2.427699304846271e-05
2.54058893221551e-05
2.667217344495975e-05
2.808023544829321e-05
2.968351553413449e-05
3.150376667758696e-05
3.360206982316147e-05
3.598240034869625e-05
3.864058002015523e-05
4.135562330918081e-05
4.371591715407598e-05
4.520258757522073e-05
4.622445177976069e-05
4.864662015241507e-05
5.572300828831689e-05
6.889160953777869e-05
6.625953588956901e-05
4.560469021684484e-05
3.382492318756389e-05
2.962404844579955e-05
3.034480633732057e-05
3.588513173040332e-05
4.852686687847094e-05
7.442603720069037e-05
0.0001284458163991405
0.0002476517080511648
0.0005302112649582145
0.001000344216331608
0.001000039822052148
0.0009999598732276145
0.0009999372071489371
0.0009999305631871649
0.0009999286592371822
0.000999928156363971
0.0009999280417977998
0.0009999280210210174
0.0009999280214242645
0.0009999280335212589
0.0009999280365128023
0.0009999280415102286
0.0009999280467286125
0.0009999280550824056
0.0009999280553743719
0.0009999280600613751
0.0009999280563223144
0.0009999280603559667
0.0009999280611605902
0.0009999280634937443
0.0009999280640606381
0.0009999280642505012
0.0009999280638901635
0.0009999280658420943
0.0009999280682614084
0.0009999280783954253
0.0009999284296762017
0.0009999361340687063
1.293891884605675e-07
6.867443987026087e-06
7.971658299610267e-06
9.869430556645683e-06
1.244184342235958e-05
1.388328379896155e-05
1.404301387679747e-05
1.479929050814924e-05
1.471379726860545e-05
1.511169439581928e-05
1.521979680047396e-05
1.553494131829792e-05
1.589371193021496e-05
1.633575953370457e-05
1.672413154497497e-05
1.714718343670502e-05
1.749402213431528e-05
1.787436790262271e-05
1.825636595963375e-05
1.872259115672095e-05
1.928023472784719e-05
1.995035667569443e-05
2.074811782904566e-05
2.165084314952644e-05
2.267150038990744e-05
2.379583763025152e-05
2.505980631638322e-05
2.646714144364014e-05
2.807654382615878e-05
2.991198466636029e-05
3.20429127697636e-05
3.450076696886135e-05
3.732050549234977e-05
4.034480656273666e-05
4.313834446197083e-05
4.497197213098177e-05
4.595593096823608e-05
4.795563947538281e-05
5.44900084220799e-05
6.777152470132846e-05
6.600854189633584e-05
4.46674084089543e-05
3.268982279379865e-05
2.84517573640735e-05
2.909087405569589e-05
3.44479864704757e-05
4.67550917311332e-05
7.210697975972568e-05
0.0001253208678682888
0.0002436204727783727
0.0005263881043318776
0.001000329014879381
0.001000034060542765
0.0009999578922746744
0.0009999365341598729
0.0009999303383754715
0.0009999285882746579
0.0009999281355411306
0.0009999280365417941
0.000999928020076942
0.0009999280200537811
0.0009999280300652588
0.0009999280374379073
0.0009999280409852807
0.0009999280458200495
0.0009999280525216049
0.0009999280545238849
0.0009999280571432549
0.0009999280564905722
0.0009999280602511979
0.0009999280621075443
0.0009999280643992569
0.0009999280640331397
0.0009999280641570958
0.0009999280657411811
0.0009999280660193135
0.0009999280659093604
0.0009999280802767472
0.0009999285355063157
0.0009999372957433393
1.294932136854471e-07
5.851245925125561e-06
7.113842321137136e-06
8.437843690130329e-06
1.09739322929438e-05
1.279958427877418e-05
1.288576079679645e-05
1.366595322226399e-05
1.339018641553353e-05
1.378511423015196e-05
1.387803704644509e-05
1.419730457311545e-05
1.454344594740175e-05
1.496036954742262e-05
1.533479440440347e-05
1.572334986628754e-05
1.605522603381783e-05
1.641091396387111e-05
1.678321371975401e-05
1.724194864957746e-05
1.779031311671491e-05
1.846284258650291e-05
1.924446440804999e-05
2.013893318884338e-05
2.1144418947934e-05
2.225603731475971e-05
2.350700876495138e-05
2.490287651610155e-05
2.649830967446715e-05
2.832263596239175e-05
3.04466041132954e-05
3.292060571163654e-05
3.581943643655557e-05
3.905966255225874e-05
4.223924606453187e-05
4.447380858790902e-05
4.555968263857901e-05
4.760370435321456e-05
5.384931902862022e-05
6.685784923129183e-05
6.409798434132111e-05
4.276689305257002e-05
3.125883520307523e-05
2.729779486957012e-05
2.806866392551514e-05
3.34797795955754e-05
4.583771045613568e-05
7.140218596970416e-05
0.0001254720888732947
0.0002468127865704527
0.0005399703593755469
0.001000292674289438
0.0010000234704757
0.0009999546652557203
0.0009999355215094263
0.00099993002508261
0.0009999284954121026
0.0009999281106229871
0.0009999280306490807
0.0009999280194241298
0.0009999280188740791
0.0009999280296872593
0.0009999280363189318
0.0009999280409124748
0.0009999280458112979
0.0009999280518517791
0.0009999280540216396
0.000999928056509125
0.0009999280565470227
0.0009999280601004437
0.0009999280606978042
0.0009999280634844642
0.000999928065643099
0.0009999280641845166
0.0009999280651669955
0.0009999280637106385
0.0009999280629256647
0.0009999280908621392
0.000999928664729277
0.0009999385165288901
1.294665776029692e-07
5.079955688385677e-06
6.37214581888358e-06
7.215687190533868e-06
9.709232343266188e-06
1.150557506780588e-05
1.181871354629076e-05
1.24700609970462e-05
1.215736779202809e-05
1.250815828512075e-05
1.261208662062968e-05
1.29219745387281e-05
1.325329047488825e-05
1.363676194018685e-05
1.399088040485325e-05
1.43449572201353e-05
1.466196805045844e-05
1.500482524160681e-05
1.537581077378128e-05
1.583413273743256e-05
1.637999003705058e-05
1.705425049343939e-05
1.782877786690491e-05
1.871554721788384e-05
1.971128919980541e-05
2.081490280779761e-05
2.205700992852246e-05
2.344995440918543e-05
2.504141244040572e-05
2.68648672454412e-05
2.898759279712071e-05
3.147736567166907e-05
3.443382892873776e-05
3.785412750128756e-05
4.138624049885147e-05
4.405313725930195e-05
4.536394311795734e-05
4.714943351385195e-05
5.334232167789312e-05
6.565460084025346e-05
6.014887294535406e-05
4.004827332965157e-05
2.959336337198791e-05
2.616506957616224e-05
2.724152691951147e-05
3.292982090634697e-05
4.572674464400109e-05
7.228628079683856e-05
0.0001289673012183303
0.000257652759376489
0.0005726974283757475
0.001000241463971119
0.001000009467348157
0.0009999505893873732
0.0009999342877177499
0.0009999296557469404
0.0009999283909731477
0.0009999280827449105
0.000999928023639523
0.0009999280179279172
0.0009999280185070396
0.0009999280295463176
0.000999928036276052
0.0009999280430479302
0.00099992804521523
0.000999928051352946
0.0009999280540250075
0.0009999280563819286
0.0009999280572057844
0.0009999280602922523
0.0009999280607107992
0.0009999280631899398
0.000999928066235463
0.0009999280647163481
0.0009999280642078744
0.0009999280633376806
0.0009999280647648048
0.0009999281063295189
0.0009999288244048781
0.0009999398014372562
1.289465653234922e-07
4.498091205295633e-06
5.747644078254501e-06
6.188501422360073e-06
8.671411377527612e-06
1.012292271294778e-05
1.081391537251157e-05
1.124683010728993e-05
1.099975602736498e-05
1.128913183232324e-05
1.141526351339034e-05
1.170665730418245e-05
1.201832916841934e-05
1.236509266072565e-05
1.269396032261921e-05
1.301825647522719e-05
1.332337789839012e-05
1.366133844841826e-05
1.403875592882429e-05
1.450678169391925e-05
1.505933375242685e-05
1.573359430368614e-05
1.650615896462645e-05
1.738639653964235e-05
1.837451399877826e-05
1.947234915518784e-05
2.070684251962682e-05
2.209771654992745e-05
2.36861768556516e-05
2.551036376311737e-05
2.762890972498276e-05
3.012788094417583e-05
3.312417545791078e-05
3.668369536512463e-05
4.050314201413465e-05
4.355341194355387e-05
4.512818435416654e-05
4.710513152205696e-05
5.357811698496483e-05
6.468920640400567e-05
5.523166630615623e-05
3.647750456515222e-05
2.754510860894228e-05
2.486918348595345e-05
2.662547946879599e-05
3.281465785200271e-05
4.645478492087113e-05
7.487081669447773e-05
0.0001361778078323621
0.000277342412765758
0.0006285158576074006
0.00100018269287111
0.0009999939077796544
0.0009999461494169981
0.0009999329724150801
0.0009999292722088638
0.0009999282861688841
0.0009999280573683576
0.0009999280176955859
0.0009999280166747889
0.0009999280181239615
0.0009999280297758441
0.0009999280351708792
0.0009999280403991076
0.0009999280456381603
0.0009999280514210662
0.000999928054018993
0.0009999280565388619
0.0009999280594416946
0.0009999280608542203
0.000999928061367235
0.0009999280632708911
0.0009999280649230129
0.0009999280657886128
0.0009999280639843033
0.0009999280623615356
0.0009999280664789428
0.0009999281223151324
0.0009999290060490073
0.0009999411536410294
1.276352732728356e-07
4.047861268537437e-06
5.226044075099831e-06
5.345027016456364e-06
7.845970012590969e-06
8.812886069512216e-06
9.847411306070255e-06
1.004500053531152e-05
9.904702918122317e-06
1.013470692832664e-05
1.02811620660488e-05
1.054921813020286e-05
1.083707388104381e-05
1.114811812595778e-05
1.145104074045679e-05
1.175355247381653e-05
1.205492967498759e-05
1.23959726688055e-05
1.278561186325242e-05
1.326727402352444e-05
1.383353934495519e-05
1.451052875386518e-05
1.528373243005907e-05
1.615891410622182e-05
1.713906470820935e-05
1.823276340201179e-05
1.94642876953633e-05
2.085698752243259e-05
2.244797108892588e-05
2.427632499442961e-05
2.639509701238919e-05
2.890262253418035e-05
3.193416566962666e-05
3.560964470842773e-05
3.966319973189486e-05
4.301641544486477e-05
4.485120928107486e-05
4.719284248614047e-05
5.415877761414299e-05
6.290727149509501e-05
4.934533765196232e-05
3.296469187046462e-05
2.568511390534025e-05
2.386062319257667e-05
2.601653016196099e-05
3.287734250725581e-05
4.811716254888807e-05
7.941476167937101e-05
0.000147841722296744
0.0003080906028989591
0.000714422735662587
0.001000123217146342
0.0009999785648203757
0.0009999418118034297
0.0009999317052575682
0.0009999289111952663
0.0009999281918109102
0.0009999280368175945
0.0009999280134410113
0.0009999280149240225
0.0009999280239028981
0.0009999280342820891
0.0009999280352065998
0.0009999280397012705
0.0009999280458984818
0.0009999280515514475
0.0009999280560694876
0.0009999280579120382
0.0009999280596326998
0.0009999280597801185
0.0009999280614314298
0.0009999280637672885
0.0009999280648415089
0.0009999280657232924
0.0009999280639916815
0.0009999280626476685
0.0009999280668957513
0.0009999281416064646
0.0009999292268397097
0.0009999425733038122
1.257021518476841e-07
3.685445936730361e-06
4.792426483166642e-06
4.658954095496319e-06
7.208430888528484e-06
7.670053134520756e-06
8.897049390351609e-06
8.899536654838443e-06
8.860570746770993e-06
9.043729564105192e-06
9.202894583651408e-06
9.446645199106758e-06
9.710115531012708e-06
9.99089021199201e-06
1.027281118475257e-05
1.056271541909342e-05
1.086862332180106e-05
1.122098753946263e-05
1.162954447637864e-05
1.212692892942842e-05
1.270844536383879e-05
1.339030704168817e-05
1.416483070824132e-05
1.503841321782836e-05
1.601527726441507e-05
1.710909338242566e-05
1.832944264899752e-05
1.972139734527772e-05
2.130936437543572e-05
2.313260269217406e-05
2.523929295277211e-05
2.773778481775919e-05
3.077939680364433e-05
3.452955950796322e-05
3.873219000448312e-05
4.225000575370227e-05
4.42865623267871e-05
4.712296299864907e-05
5.452823574954558e-05
5.907727806021761e-05
4.278792748358761e-05
2.955710222575826e-05
2.394174745562115e-05
2.302405585239656e-05
2.590836430082592e-05
3.374441122777302e-05
5.039868456109306e-05
8.555678574010023e-05
0.0001651926989430188
0.0003535432295199382
0.0008419408513700002
0.001000069200650281
0.0009999648034522465
0.0009999379315678695
0.0009999305838534257
0.0009999286011439117
0.000999928113049981
0.0009999280155219906
0.0009999280073225564
0.0009999280137588775
0.0009999280260158509
0.0009999280355872668
0.0009999280373147927
0.0009999280398906671
0.0009999280491845128
0.0009999280529975011
0.0009999280548724965
0.0009999280579171034
0.0009999280585882065
0.000999928059715761
0.0009999280624371823
0.0009999280628560634
0.0009999280649863691
0.0009999280658556668
0.0009999280644304739
0.0009999280639112007
0.0009999280686032598
0.0009999281696874275
0.0009999294859151411
0.0009999440618605833
1.232385193734533e-07
3.482205146485535e-06
4.419113584412539e-06
4.102015983433184e-06
6.726338303634636e-06
6.711208454613313e-06
7.948875436098842e-06
7.829968850229692e-06
7.863421318549258e-06
8.016036761955157e-06
8.180263290580791e-06
8.402591838840223e-06
8.645243729293837e-06
8.90432850958614e-06
9.173811324881949e-06
9.461230910268672e-06
9.778620276998598e-06
1.014756887192988e-05
1.057835026666787e-05
1.10924161325668e-05
1.168882618624272e-05
1.23778229601379e-05
1.315326286866783e-05
1.402605101320609e-05
1.500173299428061e-05
1.60961486343946e-05
1.733192834767753e-05
1.873388922195635e-05
2.03317934789598e-05
2.216238698767862e-05
2.427345574993099e-05
2.678324070269247e-05
2.98676163164312e-05
3.372024489254297e-05
3.80613589747389e-05
4.16657511175621e-05
4.391070926100943e-05
4.741863124383603e-05
5.488790775515391e-05
5.351599510150869e-05
3.674607829832941e-05
2.624243260928561e-05
2.222447721562883e-05
2.223989089968049e-05
2.61638178861838e-05
3.52763653716201e-05
5.44556378675561e-05
9.543337388208232e-05
0.0001883153847909442
0.000415564891834029
0.001000334874159895
0.001000024769591537
0.0009999534015700253
0.0009999347252010794
0.000999929674166036
0.0009999283586349457
0.0009999280546049223
0.0009999280002044775
0.0009999280030598234
0.0009999280161671247
0.0009999280235144013
0.0009999280355175366
0.000999928037339068
0.0009999280407858224
0.0009999280480668081
0.0009999280517987753
0.000999928054670064
0.0009999280589396762
0.0009999280589448949
0.0009999280595901065
0.0009999280633695756
0.0009999280632209994
0.0009999280647935555
0.0009999280648499717
0.0009999280646256674
0.0009999280667057566
0.000999928071837452
0.0009999282055292279
0.0009999297939830183
0.0009999456203129079
1.204775408952218e-07
3.626674800195874e-06
4.063147288432198e-06
3.660211583580672e-06
6.341342538157545e-06
5.902411031883389e-06
7.005119324762654e-06
6.845239007812249e-06
6.920173505870469e-06
7.056250882614855e-06
7.221082801385972e-06
7.426969966571861e-06
7.65507241685155e-06
7.902104944318187e-06
8.168369383456973e-06
8.462012369096147e-06
8.795559761864479e-06
9.183766932492258e-06
9.637016065449307e-06
1.016737353673753e-05
1.077749562310016e-05
1.147402526983195e-05
1.225707778961936e-05
1.31347766216023e-05
1.41175836053084e-05
1.522183681074748e-05
1.646976320514622e-05
1.788526434012681e-05
1.949454484505371e-05
2.133065763712383e-05
2.344810917077433e-05
2.597748561764549e-05
2.912635733665683e-05
3.310325820686608e-05
3.754958904285607e-05
4.114905708884633e-05
4.363109005856654e-05
4.790771984151836e-05
5.421257103395755e-05
4.646216884897181e-05
3.13988307392873e-05
2.35490695628889e-05
2.094532897478999e-05
2.190212903891872e-05
2.663062204673777e-05
3.731504364208576e-05
6.027356219453434e-05
0.0001094121613503783
0.0002233883684418269
0.0005098920528230209
0.00100019175999405
0.0009999917188863738
0.0009999445690577178
0.000999932251142309
0.0009999289911660195
0.0009999281810968729
0.0009999280116323381
0.0009999279930401489
0.0009999280014243669
0.0009999280148014723
0.0009999280220874837
0.0009999280372908162
0.0009999280406913142
0.0009999280470412697
0.0009999280478520522
0.0009999280518034402
0.0009999280547687676
0.0009999280595825713
0.0009999280604717057
0.0009999280615454718
0.00099992806333481
0.0009999280631869266
0.0009999280649218949
0.0009999280649927716
0.0009999280661479703
0.0009999280675766391
0.0009999280769499251
0.0009999282483813068
0.0009999301455108117
0.0009999472441884181
1.175662281251309e-07
4.044493196794518e-06
3.762084088472071e-06
3.296794125216618e-06
5.990829643283534e-06
5.204109992254027e-06
6.08336512209587e-06
5.947746982435764e-06
6.041405667015932e-06
6.171379511548746e-06
6.335343840604038e-06
6.531265686691422e-06
6.752088870451559e-06
6.995882432670056e-06
7.266752951053876e-06
7.572890884557717e-06
7.924864349519722e-06
8.333118670404508e-06
8.807211794113637e-06
9.354643081373911e-06
9.979069728161505e-06
1.068579437381762e-05
1.147861627034362e-05
1.236576134330366e-05
1.33601015389866e-05
1.447857983552665e-05
1.574302822737891e-05
1.717517879042574e-05
1.8797243034458e-05
2.060851749606609e-05
2.272268602961832e-05
2.526761860946987e-05
2.849034182156297e-05
3.257366698095839e-05
3.702850312083073e-05
4.049125854902971e-05
4.32548221924094e-05
4.813384300696085e-05
5.112205998327732e-05
3.911002524522827e-05
2.69363091219457e-05
2.135088615190135e-05
1.999546588499826e-05
2.191547009319919e-05
2.784214884964746e-05
4.067777727781327e-05
6.779563942415923e-05
0.0001290238649946174
0.0002734309781232889
0.0006478227253485556
0.001000092899527755
0.000999967930207196