/*--------------------------------*- C++ -*----------------------------------*\
| =========                 |                                                 |
| \\      /  F ield         | OpenFOAM: The Open Source CFD Toolbox           |
|  \\    /   O peration     | Version:  v1912                                 |
|   \\  /    A nd           | Website:  www.openfoam.com                      |
|    \\/     M anipulation  |                                                 |
\*---------------------------------------------------------------------------*/
FoamFile
{
    version     2.0;
    format      ascii;
    class       volScalarField;
    location    "0.001";
    object      omega;
}
// * * * * * * * * * * * * * * * * * * * * * * * * * * * * * * * * * * * * * //

dimensions      [0 0 -1 0 0 0 0];


internalField   nonuniform List<scalar> 
16000
(
945.237211728061
35.33799251736588
16.07238022566575
15.9429661499691
14.02844018034412
14.82040714536436
13.60759931673947
13.90999255061109
13.59746886240798
13.59362960667458
13.49344835150922
13.42200832303118
13.33683564469553
13.25702492148156
13.17291910576712
13.08794333568351
13.00017552097543
12.91574482696628
12.82750894016643
12.74531618147006
12.65348706752321
12.56104024016163
12.45571654059159
12.33860681358745
12.21225724645609
12.07695005984348
11.94475559521003
11.81285921982167
11.69089444973932
11.57151939729441
11.45926576669432
11.34845213655579
11.24172175584413
11.13531312991705
11.03189287627372
10.93032936034862
10.83301123452783
10.7410025488185
10.65350916313865
10.57009204086409
10.48789447677406
10.40408932056849
10.3191414662086
10.23720879670836
10.16390603058612
10.10397889776363
10.0594410189875
10.02929277907242
10.01076421742145
10.000419687155
9.995103610060083
9.992787277904949
9.992069080688459
9.99183853885965
9.99176281058492
9.991738151692559
9.991730469070635
9.991728163562135
9.99172745459661
9.991727248555138
9.991727140843555
9.991727052894081
9.991727015230055
9.991726964262279
9.991726920014745
9.991726901947539
9.991726895482094
9.991726893823323
9.991726883724294
9.991726875541321
9.991726884992152
9.991726856694767
9.991726792279399
9.991726811208993
9.991726844285987
9.991726853918294
9.991726823429063
9.991726926435247
9.991728877900716
9.991847473432646
972.274382786372
40.559672505416
17.36988927558801
16.72834093242402
14.63498216134815
15.47891180246156
14.12814462815319
14.44255155503972
14.0576869492744
14.0535139683349
13.931776098134
13.84742770805089
13.74569220020915
13.64900122802954
13.54846161954988
13.4472388682915
13.34644928282456
13.25065349584198
13.14753724818098
13.05172144821763
12.94697284231866
12.84012405684602
12.72435796830373
12.59466772873902
12.4573978024823
12.30779511584355
12.16135651083846
12.01699462986043
11.88027740242255
11.75221336105679
11.62714366741235
11.50897775462648
11.39214228378671
11.27755767586382
11.16605984798509
11.05574615546245
10.94953154327858
10.84769401136818
10.75131625848768
10.65984121481345
10.56978688496935
10.47657212149951
10.38051389436611
10.28606362591075
10.2003240551453
10.12907388903407
10.07531855692348
10.03851124937591
10.01563087266285
10.00275684298899
9.99631616821212
9.993145308178377
9.99217241797982
9.991869578958044
9.991772264746867
9.991740996121274
9.991731311958528
9.991728419410913
9.991727556669938
9.991727331023023
9.99172718401377
9.99172707573166
9.991727050757024
9.991726989762254
9.991726934854462
9.99172693526325
9.991726911073769
9.991726893569611
9.991726880951315
9.99172689047411
9.99172688658842
9.991726858445848
9.991726822052174
9.991726829438759
9.991726857071745
9.991726855920927
9.991726846606246
9.991726961219019
9.991731277378266
9.991967656374175
997.6747231898937
44.6882708385533
18.67755513640253
17.63466502412459
15.29560388305771
16.13058716414095
14.73683859808605
15.04471615086257
14.58307083005762
14.57285725333053
14.42318321480795
14.32019888230078
14.19646875941004
14.07464023660852
13.95307900899615
13.83117815163711
13.70915423216214
13.59449248122309
13.47340015287227
13.35866184346391
13.2363870852918
13.1086699026032
12.97348208358837
12.82223759903278
12.66421600197177
12.49840411238316
12.33138934457281
12.17351411847571
12.0202240877962
11.88104874903333
11.74392331678591
11.61732553960212
11.49073592456279
11.37072398077789
11.25082053348
11.13516943578517
11.02401291513839
10.91674512869977
10.81667217752175
10.72281744819738
10.63035443505273
10.53401713158179
10.4324439972581
10.32988995185078
10.23423304987015
10.15310386150133
10.09092218436642
10.04778389476914
10.02066359360926
10.00522812210844
9.99725877132647
9.993550525958211
9.992281541271444
9.991900809482201
9.991781455077346
9.991743661910604
9.991732045341479
9.991728608464923
9.99172761439508
9.991727368999459
9.991727188332902
9.991727083831922
9.991727079961061
9.991726998435064
9.99172693547369
9.991726939531677
9.99172693335893
9.991726901487988
9.99172684343918
9.991726893065684
9.991726862150097
9.991726852586584
9.991726865413964
9.991726849310512
9.991726859989681
9.991726855484686
9.991726860275326
9.991727037883692
9.991734528990564
9.992071738739806
1021.315722166922
49.95789153677689
19.95010819727911
18.76977669536481
16.17189073846077
16.90867317924731
15.48832332660102
15.71694925838609
15.2143618085555
15.17694735888757
15.00045301144717
14.87218290405016
14.71895424678648
14.56811379899603
14.42045567627724
14.27161193368348
14.12642494845018
13.9885930919601
13.84877786659193
13.71295444891435
13.57078334779206
13.42133629953289
13.26352967860358
13.09326809305066
12.91213955468036
12.72824143163259
12.54038085195346
12.36508701594826
12.19389287380646
12.0387478828606
11.88861719204164
11.74779149878339
11.61089504195226
11.47966207382678
11.35021907294211
11.22680002541671
11.10549114387504
10.99094854263874
10.88444210363459
10.78465544693821
10.68911280509761
10.59016982998375
10.48326303388519
10.37268813966178
10.26752880279504
10.17679125509094
10.10630494824566
10.05692968084717
10.02566239227656
10.00772755840021
9.998382210492634
9.993977357680356
9.992392282731995
9.991931194522401
9.991790106083554
9.991746115247304
9.991732708685012
9.991728783895336
9.991727692295237
9.991727386960076
9.991727201036106
9.991727118530383
9.99172710811839
9.991727040284045
9.991726944054831
9.991726943315998
9.991726935913377
9.991726920520078
9.991726859060517
9.991726890324227
9.991726844473988
9.991726865771094
9.991726869987845
9.991726852320738
9.991726863143544
9.991726839299311
9.991726864614183
9.991727142012616
9.99173840989471
9.992176798598205
1043.141816552021
56.78676528018047
21.4351969935887
20.10759392628499
17.25444652787623
17.81011173187953
16.39773803947427
16.48367792564007
15.97136022567732
15.8791007155688
15.66929915543844
15.503720131846
15.30973213040604
15.11777522923315
14.93443760025796
14.74854642664327
14.57382541425275
14.40677942863623
14.24302581248015
14.08029915540391
13.91131818975233
13.73636773695262
13.55078708123839
13.35581682368611
13.14909191696071
12.94338156268824
12.73330639696903
12.53817143789821
12.35036434533075
12.17873341637574
12.01692184046129
11.86258124005568
11.71711857039099
11.57483687182231
11.43835644345464
11.30603204779487
11.17768125639635
11.05711849343026
10.94326582587661
10.8386782766862
10.74118324548225
10.63982311439653
10.5288278134781
10.41161839396593
10.29803651740275
10.19870351416066
10.12056640565701
10.06532200810692
10.03013960701174
10.00995779534309
9.999424948785014
9.99438805479439
9.992494229547782
9.991957861353807
9.991797376355965
9.991748079649835
9.991733197348413
9.991728900459558
9.99172773249664
9.991727392551658
9.99172719818047
9.991727130814786
9.991727118175145
9.99172705875403
9.991726948730527
9.991726929413735
9.991726934331512
9.991726923800901
9.991726899960579
9.991726884172779
9.991726871242728
9.991726865627038
9.991726872202342
9.991726854685181
9.991726864558787
9.991726853156871
9.991726867206342
9.991727329123444
9.991743578680618
9.992288507461316
1063.156472975935
65.60047299872339
23.49719690752429
21.70275530608081
18.66238104525195
18.96782730984541
17.52526175338387
17.4028967638913
16.9001711109562
16.72317926819053
16.47098528855803
16.25154470766709
16.0023504916016
15.75532659802313
15.52537193321509
15.29280553780708
15.08125833394744
14.87676041551908
14.68234862889193
14.48671204363427
14.28634243972367
14.08113667081214
13.86241130301298
13.63864009262791
13.40146344522203
13.16990883692558
12.93540571531369
12.71850337196179
12.51185792288314
12.32199062231614
12.14531345408499
11.97646471943868
11.81953395347742
11.666073841121
11.52136231853344
11.38020064818094
11.24518323366015
11.11688074588728
10.99643185449134
10.8872114049268
10.78631524405065
10.68301175040916
10.56867546902581
10.44607491406657
10.32526308120509
10.21808988216118
10.133155665264
10.07273808020326
10.03404651019664
10.0118174314578
10.00023773525291
9.994728077485481
9.99256983015402
9.991975399134049
9.991801599374849
9.991749087604385
9.991733427991003
9.99172896814555
9.991727744888928
9.991727393534141
9.991727189569527
9.991727132587402
9.991727118957678
9.991727070317365
9.991726959576548
9.991726897346132
9.991726913721672
9.991726925363178
9.991726914598447
9.99172685755943
9.991726876200914
9.991726862371729
9.991726870796317
9.991726846336501
9.991726864417455
9.991726854632557
9.991726868129147
9.991727590033134
9.991750156439711
9.992404504532026
1081.368956869002
76.95581895876686
26.28021419343551
23.74264416427231
20.4536764733122
20.37343687786831
18.90883705861929
18.5209752747342
18.01808683409271
17.72715427245278
17.41329534289379
17.11641905237385
16.79342006351305
16.47318071615418
16.18268862791813
15.89337811207049
15.63453614814918
15.38543746054417
15.15168832669766
14.91541511812984
14.67786989300042
14.43525160017554
14.17857703094291
13.92092092449412
13.65164590712951
13.39275460839123
13.13288874169502
12.89232815217544
12.66556979375275
12.45706823776557
12.26472918495707
12.08215527912995
11.91318296282914
11.74926348324993
11.5956362313901
11.4459384329576
11.30460411509108
11.1694666103826
11.04300206417615
10.92906813829484
10.82497385496897
10.71945177330809
10.60241921548742
10.47521994346407
10.34810237800911
10.23412242323203
10.14303394752385
10.0781507282458
10.03672497523666
10.01299663930542
10.00069365591624
9.994912113401629
9.992606623844132
9.991982913131549
9.99180311386989
9.991749362353152
9.991733474808218
9.991728979513985
9.99172774611937
9.991727405819894
9.991727239781474
9.991727133274569
9.991727118903203
9.991727071221243
9.991727006061847
9.991726925066198
9.991726889735627
9.991726904298112
9.991726919436532
9.991726875605604
9.991726875497276
9.991726862920016
9.991726863196876
9.991726835261787
9.991726863625523
9.991726852593452
9.991726868803671
9.991727935961112
9.991758396089901
9.992525876659856
1097.83063892029
91.60394358610264
30.13172278231632
26.50752017736423
22.78513313217703
22.07865559175645
20.63338802019644
19.90153622562984
19.37821438080699
18.93534192503585
18.52825227110379
18.1212028899644
17.70048214405581
17.2876980569046
16.91974074504542
16.56197339568897
16.24189372090755
15.93977662627875
15.65625640574479
15.37057321858504
15.08965904740425
14.80032457566526
14.50198602224548
14.20592947573756
13.90209143408534
13.61189934118086
13.32412780226395
13.05887956881982
12.81054232799329
12.58281518806169
12.37434960925543
12.177683197546
11.99668907904137
11.82267576935506
11.66040105558527
11.50367705549598
11.35576019702251
11.21374918573596
11.08281238115779
10.96394631277535
10.85668650422677
10.74896299460843
10.62855480907808
10.49584760231003
10.36297852148068
10.24365605670926
10.14855782563533
10.08095688538489
10.03800871980257
10.01352938975172
10.00088101433606
9.994972056826647
9.992609914600299
9.991980221740347
9.991801438091795
9.991748693999568
9.991733270640506
9.991728928194171
9.991727733202607
9.99172740927556
9.991727295937375
9.99172715484162
9.991727121610126
9.991727071204048
9.991727018983102
9.991726935574933
9.991726932652067
9.991726885866846
9.991726923194834
9.991726882885782
9.991726874883881
9.991726851566785
9.991726845922118
9.991726844018929
9.99172684765003
9.991726830209879
9.991726866815922
9.991728466226022
9.991768485692932
9.992653161599566
1112.542622089596
110.427839421776
35.60081390459248
30.34297430079699
25.84154484526719
24.24679608888859
22.81819267279519
21.63305970958426
21.05432704291321
20.40159735960014
19.85104160747644
19.29002696330333
18.7388512739347
18.21151422552861
17.74215259070858
17.29832955366362
16.90147201574331
16.53445154563428
16.1882428081159
15.84405148112532
15.51130399255428
15.16722218345939
14.82379806703889
14.48314766881321
14.14130865312436
13.81841529092449
13.50176965194957
13.21074560923948
12.94150134757827
12.69629745006271
12.47089414234146
12.26118445510721
12.06788608406747
11.88425923325416
11.7129641861184
11.54971389763697
11.39669055890076
11.24946035370431
11.11404901393581
10.99093136257795
10.87977905758978
10.76840635580444
10.64507421220291
10.50818116618549
10.37095890948672
10.24848552277757
10.15111754230734
10.08206005961785
10.03828906351392
10.01347433879596
10.00075069582804
9.994852502035533
9.992564774901581
9.991964709876171
9.991796221149821
9.991747035439916
9.991732788468973
9.991728804417377
9.991727702132744
9.991727399708502
9.991727305742373
9.991727188647413
9.991727112239023
9.991727076415744
9.991727028043195
9.991726961159369
9.991726941143519
9.991726914990876
9.991726921497113
9.991726883922967
9.991726865408216
9.991726842543297
9.991726846195755
9.991726844950746
9.991726829233189
9.991726830035759
9.991726927991206
9.991729236293796
9.99178082255184
9.992786823528684
1125.618176387719
133.9666965601934
43.47014051396021
35.8376499504751
29.8401531302638
27.06689549918995
25.58447748952881
23.82933547829978
23.10716056952838
22.16569630712461
21.40346073701767
20.63869814344736
19.91849923859268
19.24993361271591
18.65240500631812
18.1004884111096
17.61205067247783
17.16243073595336
16.74157321187419
16.33049225134689
15.93523306715947
15.53033821182224
15.13585076048459
14.74718922769376
14.36402489052124
14.00596316340963
13.66042184509312
13.34508948516103
13.05375983400141
12.79155819717637
12.55090917907642
12.32819851080462
12.12434357360591
11.93130957874941
11.75299579913353
11.58357095819486
11.42579930809489
11.27620533514631
11.13788420024563
11.01265725274036
10.89940189680145
10.78312911866204
10.65535887077838
10.51508280326687
10.3748545424648
10.24959129931258
10.15021834076055
10.0805137548688
10.03695839803749
10.0125870284266
10.00025758633568
9.994570063132615
9.992481600360426
9.991939442238424
9.991788323518481
9.991744605508067
9.991732101134952
9.991728623129111
9.991727657058329
9.991727383597091
9.991727313105924
9.991727191622777
9.991727123282796
9.991727077132628
9.991727028142698
9.991726967851394
9.991726946165413
9.991726921323661
9.99172692093541
9.991726885433877
9.991726879492539
9.991726851676871
9.991726830106609
9.991726844679711
9.991726835086377
9.991726855797435
9.99172701537983
9.991730209611285
9.991795733409299
9.992927355307522
1137.142791578559
161.1692999338983
54.82679264907404
43.70386379672475
35.03675867189307
30.81722234228144
29.03089514474935
26.5696393212232
25.56512526973984
24.24184727902238
23.18613360782484
22.16139125777685
21.23103005713467
20.38468876523711
19.63416351896332
18.95393310087453
18.35886845162543
17.81178451684987
17.30523326728532
16.81582607169452
16.34610271168698
15.87655325624845
15.42429140683333
14.98598911855351
14.56185369643003
14.17000191524722
13.79641415895892
13.45858249843793
13.14766942571479
12.86867970364803
12.6130304725347
12.37875972035306
12.16339712126595
11.96279052524927
11.77820748849043
11.60519612061261
11.44498181028176
11.29445586789568
11.1539728764107
11.0278466764127
10.91239768830834
10.79334023854024
10.6617694400625
10.51643728511421
10.37094920396204
10.24392723860432
10.14489777906333
10.07643355406182
10.0343121318805
10.01104612484824
9.999443628427851
9.994171918777413
9.992371596985581
9.991907441420791
9.991778656700433
9.991741725976828
9.99173129754076
9.99172842548656
9.991727615802088
9.991727375096001
9.991727312306582
9.991727192271961
9.991727123632041
9.991727055802146
9.991727034110546
9.991726972837606
9.991726946156829
9.991726922584936
9.99172691435985
9.991726883534231
9.991726879364039
9.991726854621362
9.991726824207404
9.991726839375811
9.99172684487573
9.991726864047765
9.991727083899956
9.991731514451965
9.991813599912074
9.993075152277047
1147.034169224921
210.9345402418622
71.29629217003219
54.89656866094927
41.6334818842807
35.74860272129128
33.24655683778056
29.90574155680105
28.44065364880113
26.62219099766623
25.18435810707962
23.83854841959715
22.65083873773389
21.58979421048261
20.66635737451011
19.84039554536818
19.12277054220176
18.46680165599161
17.86174203523088
17.28224909792109
16.73190429675718
16.19429387865811
15.6849664083338
15.19986726539423
14.7360853999745
14.30326925346048
13.89820399119042
13.53546827100607
13.20602811143298
12.91465901159192
12.64621444422489
12.40494126961911
12.18305582490995
11.97886838658047
11.7902637195403
11.61564619977878
11.45392759061538
11.30305477842632
11.16240320951209
11.03595784579201
10.92053480118262
10.80035942045537
10.66170694105425
10.51031087377207
10.36041326722617
10.23353596699414
10.13614557636337
10.07030594130834
10.03055771310959
10.00894240389009
9.998352856338387
9.993713521772607
9.992249296250971
9.991872575049479
9.991768309634029
9.991738708288182
9.991730471505292
9.991728210326487
9.991727568905132
9.991727365831208
9.99172731213333
9.991727189382567
9.991727134593342
9.991727082219315
9.991727029925329
9.99172697214107
9.991726946210138
9.991726921028638
9.991726892058004
9.991726877942245
9.991726872820268
9.991726853810542
9.991726837307496
9.991726828690471
9.99172684749931
9.991726881217371
9.991727196070023
9.991733306753426
9.991835007705946
9.993230574503059
1154.815431132894
295.2146665976407
95.06688199141996
70.35180422534754
49.75850372212775
42.01395262412409
38.27024296315049
33.829738106309
31.70842169388085
29.26995561046916
27.35540070431029
25.62671545803531
24.1379654257578
22.83297598465903
21.71988685605
20.7348125415732
19.88012116233323
19.09881196822558
18.38758743872387
17.7126811589194
17.08136229703553
16.47515841538706
15.90042377836658
15.34746527104824
14.83781650360034
14.37145729420382
13.94901257664833
13.57326203300179
13.23470954862979
12.93632787983567
12.66200150810144
12.41703854629935
12.19171037782597
11.98532065813065
11.79484833966292
11.61960268965081
11.45738284202894
11.306758589625
11.16660093665423
11.03978661383962
10.92201207091898
10.79320403585934
10.64914619799907
10.49403122906228
10.34581588967417
10.21952338455512
10.12451220718973
10.06255370882105
10.0258971466179
10.00641452537781
9.99718946264063
9.993252798236199
9.992128531950746
9.991838440632886
9.991758316230747
9.991735852719502
9.991729695429148
9.991727998755682
9.99172752003782
9.991727365332205
9.991727251267056
9.991727143859109
9.991727134121925
9.991727089162795
9.991727027323721
9.991726970825287
9.991726925741899
9.991726907328836
9.991726890135388
9.991726888662354
9.991726872177063
9.99172684885559
9.991726838120922
9.99172682936913
9.991726848120107
9.991726890447939
9.991727382158816
9.991735701495417
9.991860353374884
9.993393881837973
1160.883496541087
412.0551641056284
128.9283896364773
90.71535428309933
59.48561219466338
49.68411377884387
44.07204080173774
38.28043999235597
35.30643035361599
32.11320902497683
29.6330719084252
27.46890402501349
25.64832422895252
24.08103776950996
22.76104108274786
21.60363650024306
20.5974956997334
19.68515099923204
18.86562553806605
18.08837203095952
17.34861916219768
16.65035650020084
16.01181613662048
15.4230187775811
14.89150556395939
14.40891504579542
13.97696026941461
13.59429176719547
13.25066900113987
12.9479570694059
12.66993586260881
12.42182595513998
12.19331592673949
11.98498211790461
11.79319117674335
11.61783309434374
11.4557725619262
11.30586325294571
11.16644902662316
11.0399639006895
10.91915477985646
10.78178835428488
10.63059320127944
10.47121528620711
10.32212490162676
10.20017420470764
10.11141909846584
10.0538340126852
10.02073157015729
10.00380507482573
9.996041607296473
9.992836149575988
9.992020035914299
9.991807866038519
9.991749495902122
9.991733371828046
9.991729043870139
9.991727874781018
9.991727510232458
9.991727363646596
9.991727227980187
9.991727130497207
9.991727113002908
9.991727087279694
9.991726994501038
9.991726956412768
9.991726937675011
9.991726907280398
9.991726900570928
9.991726889304083
9.991726862131712
9.991726857953592
9.99172683667442
9.991726828123358
9.991726844969858
9.991726897177527
9.991727641537324
9.991738816463794
9.991890247338128
9.993565205277946
1165.511251508532
552.6710847042283
169.8302572511686
116.1000677177411
70.69060644970915
58.60373473910496
50.50456267860385
43.10037897127557
39.1052870551402
35.01198460663023
31.91772077815176
29.29344099750838
27.11878879578596
25.27054067834371
23.72961910902657
22.40375251849536
21.23595655138821
20.17733753650836
19.19187792502731
18.30189376089134
17.4835605752522
16.74210684359754
16.07327289013618
15.46599678643011
14.92267959682854
14.43108833087161
13.99147755126741
13.60250004086328
13.25419326055686
12.94693883410608
12.66474009545833
12.41251034278156
12.17982335332879
11.96923353346605
11.77587782402428
11.60044672867697
11.43914995700303
11.29063103227895
11.15405169677366
11.02843258665938
10.90493780450386
10.76540439070852
10.60602897233075
10.44346241758104
10.29447564851825
10.17797903832155
10.09551837325843
10.04424472743638
10.01569557064473
10.00133569135894
9.994839883606913
9.992493967835014
9.991930051049017
9.991782488276868
9.991742250216998
9.991731371265503
9.991728528525918
9.991727781252342
9.991727503331621
9.991727330762627
9.991727251534707
9.991727130981904
9.991727112739484
9.991727078393474
9.991727005639428
9.991726968351283
9.991726939704456
9.99172689706637
9.99172689700714
9.991726890559951
9.991726852831563
9.991726854308061
9.991726838605947
9.991726838297406
9.99172684514744
9.991726899853171
9.991728006261789
9.9917428734847
9.991925230898879
9.993744482906253
1169.39286563521
712.1426822926519
197.3512509774056
145.8118907031549
83.15491699583144
68.40007697212695
57.28515274480759
48.03393271936239
42.91597156169131
37.80339064988539
34.09638096366228
30.99005659525552
28.45387840216582
26.32335527664543
24.54212277165349
22.98359307034908
21.62248947800104
20.43609440797271
19.36210297157761
18.41894128395518
17.55976157886495
16.79576470290318
16.1089326083974
15.48750815649272
14.93168583212322
14.43061185064769
13.9822756268551
13.58380330729195
13.23061685833919
12.91761445150172
12.63457745077493
12.38124932164834
12.14952700887477
11.94219441410156
11.75272817225163
11.58104481364315
11.42231218235278
11.27633722032092
11.14168243010347
11.01477455252018
10.88503613391535
10.73437392970449
10.5698291129869
10.40712196315323
10.26507373717411
10.15491584389475
10.07962058229244
10.03490565575981
10.01064117990862
9.998881444079434
9.993769584010305
9.99223343761658
9.991860670682748
9.991762986968757
9.991736751503973
9.991729925938257
9.991728193837169
9.991727690504618
9.99172748887656
9.991727339398212
9.991727265089819
9.991727113146879
9.991727079245599
9.991727015885139
9.991727007784851
9.991726968309491
9.991726938747087
9.991726890663299
9.991726881778778
9.991726871051101
9.991726853177656
9.991726854647972
9.991726837342529
9.991726837125311
9.991726833585503
9.991726938778104
9.991728518176622
9.991748128483524
9.991966010092723
9.993931466722566
1172.774828506678
869.5916212944024
222.686743317059
176.9281755234674
96.50780709578603
78.40280063969917
64.04773352515684
52.70660960523314
46.49347018640383
40.06603698978302
35.99795044957283
32.17039866382817
29.3887215708224
26.94324136614565
24.99604215716024
23.29902857558821
21.84208407467296
20.58454356643406
19.46098681432832
18.48700945311974
17.60053691003362
16.81590578906626
16.10908934327897
15.4672379022026
14.88960838080152
14.37700030518457
13.92421099494236
13.52430832382562
13.1743314485022
12.8631671664138
12.58622561837445
12.33653077015309
12.1115738588608
11.90654011787913
11.72198181754922
11.55405029863307
11.40008135226919
11.25730151148715
11.12573870422399
10.99583984181657
10.85837600496639
10.69912391946763
10.52853854625697
10.36712694043252
10.2311101593603
10.13053368748563
10.06445757331175
10.0259019302593
10.005973811381
9.996820803619812
9.993005218668687
9.992045900405902
9.991810388339553
9.991748978302695
9.991732930344654
9.991728949717443
9.991727953935539
9.991727571224597
9.991727466756378
9.991727339988589
9.991727267831521
9.99172711762272
9.991727039985621
9.991727005550723
9.991726968500082
9.991726969463615
9.991726918551075
9.991726907245175
9.991726888287189
9.991726865324454
9.991726847685626
9.991726847674453
9.991726842143985
9.99172682782809
9.991726834524847
9.991727023544678
9.991729242319852
9.991754749275582
9.992013025303633
9.994125577812136
1176.231719292791
976.5990301546855
248.4868576431757
195.5713097226789
107.2076513568552
87.7334821448906
69.23292500857551
56.08606927310652
48.94702797484953
41.41604931356491
37.14616095869228
32.88034918827221
29.9680933193996
27.32359737522575
25.28152155182176
23.48662384841513
21.97571889595218
20.67130428117947
19.50985806113516
18.50326744880093
17.58415842075021
16.76015605708493
16.02204071971254
15.36479939744888
14.78456924392973
14.28016080991056
13.83645701082869
13.44585794427594
13.10284519303497
12.79587263537629
12.52659991803068
12.27920826322687
12.05923922148642
11.85874287403791
11.67984496241511
11.5173346133478
11.36785425747863
11.22988913228147
11.10248181563285
10.97501566523111
10.82592553386686
10.65771880416745
10.48135316682285
10.32392411233159
10.19691378880241
10.10643138755629
10.04969746294581
10.01809611472057
10.00213880987647
9.995034263056571
9.992494238301518
9.991918693844365
9.991776116970197
9.991739616162709
9.991730538492849
9.991728374113709
9.991727794878544
9.991727558312968
9.991727456958625
9.991727338396654
9.991727265084844
9.991727121996682
9.991727067770009
9.991727017498931
9.991726945441847
9.991726943056763
9.991726921757602
9.991726898717729
9.991726889162081
9.991726865897759
9.991726853333304
9.991726838806548
9.991726842162736
9.991726843646907
9.991726865482061
9.991727120085208
9.991730256040297
9.991763172656961
9.99206689925445
9.994325861146693
1180.115931500531
1057.588052670011
272.1312604127502
206.4952318594601
115.7330125080941
93.33956016554239
72.61155718041623
58.34861212158152
50.50315302003816
42.3728018419503
37.92193623650207
33.34333183220994
30.34140569680536
27.56788105494958
25.46506171742376
23.59387083389998
22.03181342937805
20.66965477839291
19.45264210731977
18.38996005355252
17.42587476059013
16.59611064284614
15.86682407693187
15.2255351804262
14.65959978641991
14.16387217618854
13.73210310355153
13.35453635844159
13.01763823309033
12.72435125832406
12.45658968630338
12.21932826341476
12.00514921988941
11.81173618311727
11.63862535571284
11.48154701600343
11.33695750629277
11.20331887997219
11.07503191441317
10.93811308972032
10.7806511455712
10.60641184879734
10.43351320007676
10.2793676355152
10.16369076191317
10.08443043364078
10.03690390784002
10.0111786376384
9.998918806656352
9.993636448851202
9.992173183052085
9.991836883751123
9.991754240953437
9.991733834803629
9.991729130054379
9.991728080243751
9.991727685833636
9.991727545155401
9.991727408762433
9.991727301965545
9.991727264212159
9.991727122140516
9.991727075817177
9.99172702255594
9.991726957302411
9.991726930325088
9.991726921565109
9.991726881951696
9.991726881195872
9.991726856130359
9.991726855664114
9.991726851007119
9.99172683574608
9.991726848691833
9.991726878800703
9.991727277041429
9.991731569814648
9.991773523286758
9.992127884471259
9.994530954383603
1183.993177478674
1118.940432892951
293.4880501883989
215.1336802190187
123.0357391097949
97.24252499015823
75.13529350568959
59.98374684888702
51.58298568826464
43.08532638252204
38.45789983756755
33.66535321935933
30.59161459393559
27.66975273749429
25.51557698565814
23.52731183525883
21.90126544777112
20.44290859464753
19.19969369912912
18.14479445247933
17.20180082770519
16.39852137126634
15.68554616751553
15.06014046126777
14.51215967254725
14.03265319851188
13.61042348220916
13.24689261145368
12.91873863888128
12.63694154408702
12.37972499757
12.15060377849193
11.94351309191928
11.75995247806851
11.59297955147429
11.4415951804518
11.30242492294359
11.17284379126426
11.04417446568045
10.89886209007475
10.73078201558507
10.55144676833124
10.38080300591955
10.2370102120352
10.13285593844332
10.06471747005775
10.0257623855222
10.00557369074023
9.996531790097469
9.992795474908343
9.991977391047188
9.991786816860206
9.991741078917649
9.991730552135376
9.991728394577478
9.991727981254259
9.991727772787836
9.991727570784212
9.991727449219486
9.991727327495616
9.991727222593564
9.991727140032447
9.991727075813875
9.991727023468325
9.991726959036344
9.991726943142693
9.991726903086903
9.991726866917999
9.991726866372064
9.991726857681719
9.991726851290847
9.991726853666881
9.991726852362811
9.991726847372751
9.991726894708181
9.991727495053102
9.991733405310624
9.991786235082257
9.992196045442562
9.994739011481316
1187.684165683853
1163.997380186506
313.2468991953547
222.2231261122447
129.8991820694574
100.2901584108761
77.25077968996621
61.30340730224533
52.36676159953554
43.52256115859041
38.73936505513178
33.69511550004224
30.59725139956128
27.40896893045982
25.24982559734606
23.10291775778067
21.52813282613394
20.07135590535228
18.8928655669869
17.86195688592079
16.95251788707923
16.162327983152
15.47564366548904
14.86622532988584
14.33522826624018
13.87917007361039
13.48093823271118
13.13153977592748