/*--------------------------------*- C++ -*----------------------------------*\
| =========                 |                                                 |
| \\      /  F ield         | OpenFOAM: The Open Source CFD Toolbox           |
|  \\    /   O peration     | Version:  v1912                                 |
|   \\  /    A nd           | Website:  www.openfoam.com                      |
|    \\/     M anipulation  |                                                 |
\*---------------------------------------------------------------------------*/
FoamFile
{
    version     2.0;
    format      ascii;
    class       volScalarField;
    location    "0.001";
    object      p;
}
// * * * * * * * * * * * * * * * * * * * * * * * * * * * * * * * * * * * * * //

dimensions      [1 -1 -2 0 0 0 0];


internalField   nonuniform List<scalar> 
16000
(
102546.4101571707
102579.5593586488
102594.3561484295
102618.0157620632
102643.1729751122
102666.6343985205
102695.3711631255
102722.7360774832
102753.7093922023
102785.6170672439
102819.918059747
102856.208621189
102894.823461452
102935.8601401128
102979.5109895874
103025.9382680209
103075.3611516419
103127.9527210277
103183.9665730573
103243.5994364345
103307.1197917746
103374.7434086699
103446.7346720573
103523.3105715197
103604.694905976
103691.0378274138
103782.4346408755
103878.8146978832
103979.9299277443
104085.2437770215
104194.0252975572
104305.4367154564
104418.7851228535
104533.4461641578
104648.0802398053
104758.3523552089
104853.2514529378
104910.8269103111
104896.4980430081
104767.6101233961
104485.6334579764
104033.8775272166
103432.9398254954
102741.6911883271
102041.6857408896
101411.2487652873
100902.7396120236
100533.3628472733
100290.6625979724
100145.9512476195
100067.4577057916
100028.6700983879
100011.1931922012
100004.0108345329
100001.3180136678
100000.3969023645
100000.109481788
100000.027643451
100000.0063898365
100000.0013510437
100000.0002615301
100000.0000462848
100000.0000075029
100000.0000011107
100000.000000151
100000.0000000188
100000.0000000022
100000.0000000003
100000.0000000001
100000.0000000001
100000
100000
100000
100000
99999.99999999996
100000
99999.99999999999
100000.0000000001
100000
99999.99999999996
102504.9856932596
102540.7018162713
102556.1035925448
102581.7612617369
102608.2416279807
102633.2283893969
102663.7156860322
102692.4488340085
102725.2346337006
102758.7086263444
102794.7343803142
102832.7251402021
102873.0868830761
102915.9102682158
102961.4105657017
103009.7660312197
103061.231871528
103116.0160327262
103174.4265954503
103236.7203053327
103303.2477968119
103374.3258706755
103450.3467824281
103531.688795099
103618.7755086201
103712.0125917012
103811.7974146994
103918.4323622339
104032.0952348191
104152.7299424436
104280.0969207408
104413.8606000183
104553.82775225
104699.9525785968
104851.5863015207
105005.1902304758
105150.1375132432
105263.7274185959
105307.8176509961
105232.5303701187
104988.4320916324
104547.6078479348
103922.7419579472
103173.3400473873
102391.1613475712
101670.3508076521
101078.49581157
100642.4211273626
100352.6068896224
100178.1609293956
100082.7938058154
100035.3525573566
100013.8565789833
100004.9804159148
100001.6401960467
100000.4945119358
100000.1364199921
100000.0344109259
100000.0079353642
100000.0016718878
100000.0003219314
100000.0000566067
100000.0000090981
100000.0000013355
100000.0000001796
100000.0000000221
100000.0000000025
100000.0000000002
100000.0000000001
100000.0000000001
100000
100000
99999.99999999999
99999.99999999996
99999.99999999997
99999.99999999996
100000
100000
99999.99999999996
99999.99999999999
102476.5117978747
102515.110951078
102530.9366209982
102558.8060929216
102586.5195723923
102613.0388137454
102645.1518963696
102675.1789884858
102709.6294310263
102744.4853637735
102782.003587072
102821.4111653939
102863.1680820798
102907.3414037637
102954.1490147338
103003.7592990877
103056.4347745099
103112.386370056
103171.936190168
103235.362576328
103303.0501060213
103375.3683147802
103452.7882158009
103535.7961627934
103624.9639190929
103720.9019120806
103824.2776459736
103935.7412516492
104055.9124581395
104185.2582697545
104324.1561820003
104472.9189273004
104632.1014802055
104802.4935361073
104984.5616520486
105176.0465368047
105367.6242093645
105536.7761338604
105643.1168652774
105630.1218028377
105437.2870865228
105023.3228793701
104390.3470910539
103595.7635544733
102739.8130067905
101932.5633073205
101258.10042924
100754.5671377791
100416.5104984265
100211.4262261944
100098.6200034135
100042.2343174151
100016.589411373
100005.9708749647
100001.9674380091
100000.5929940327
100000.1633835671
100000.0411213146
100000.0094515136
100000.0019825712
100000.000379592
100000.0000662852
100000.0000105655
100000.0000015357
100000.0000002044
100000.0000000248
100000.0000000028
100000.0000000003
100000.0000000001
100000
100000
99999.99999999999
99999.99999999999
100000
99999.99999999994
100000
100000.0000000001
100000
99999.99999999999
100000
102467.5609459083
102509.4306296598
102525.6380576817
102556.1712437503
102585.2174985164
102613.5559049459
102647.4388603665
102679.0106625951
102715.2680118201
102751.6736306752
102790.8050143396
102831.7341788209
102874.9539191114
102920.4995479996
102968.58479894
103019.3521340037
103073.0506839623
103129.8689674102
103190.10737123
103254.0356679675
103322.0236625544
103394.4459413444
103471.7928350952
103554.5946883979
103643.4957690091
103739.2328437208
103842.6505948936
103954.6666730176
104076.2554274294
104208.3547768857
104351.9198846953
104507.9662039584
104677.9125825087
104863.648427508
105067.1373583295
105288.0150833821
105519.0329356877
105738.9104826397
105906.0879185995
105958.3323161727
105824.2066237578
105448.1456771775
104819.774933981
103992.0344543281
103071.8965917721
102184.7804660651
101431.7697114835
100863.161508099
100478.291506278
100243.4555685212
100113.7656598535
100048.7686281179
100019.1601163263
100006.8923136086
100002.2680087133
100000.6821153675
100000.187369103
100000.0469724196
100000.0107429144
100000.0022399741
100000.0004257976
100000.0000737343
100000.0000116381
100000.0000016731
100000.0000002198
100000.0000000263
100000.0000000029
100000.0000000003
100000.0000000001
100000
99999.99999999994
100000.0000000001
100000.0000000001
100000
99999.99999999997
100000
100000
100000.0000000001
100000
100000
102477.2414647908
102523.1110412513
102539.6554023764
102573.5193751744
102604.049216617
102634.6181248981
102670.5301938037
102704.0525368108
102742.4184667412
102780.7726698213
102821.8846656107
102864.727508258
102909.7979297695
102957.0951108711
103006.8239445339
103059.088997467
103114.1141275082
103172.0531554235
103233.1640354305
103297.6931392031
103365.9613855909
103438.3131648794
103515.2129086008
103597.1754838664
103684.8450022372
103778.9954641828
103880.5442957995
103990.5557700189
104110.2198932904
104240.8109736254
104383.7292630506
104540.6087082414
104713.7050818594
104906.1133289705
105121.532908126
105361.9412735798
105622.8128524164
105884.9968440526
106106.8112712371
106221.4012344547
106147.1102085983
105814.0883731116
105198.5562301439
104347.4069431282
103372.7551354569
102414.312329206
101589.7500787545
100961.4880024318
100533.7756687112
100271.8999127297
100127.0302327401
100054.3977610115
100021.3328327298
100007.6541227375
100002.510259475
100000.7518450328
100000.2054911674
100000.0512123341
100000.0116321436
100000.0024062525
100000.0004532642
100000.0000776879
100000.0000121194
100000.0000017201
100000.0000002222
100000.0000000261
100000.0000000028
100000.0000000003
100000.0000000001
100000
100000
100000.0000000001
100000.0000000001
99999.99999999999
99999.99999999999
100000
99999.99999999999
100000.0000000001
100000
100000.0000000001
102503.7231978485
102554.0398224791
102570.7448140288
102608.5759638496
102640.6687126109
102673.9588099457
102712.1868112957
102748.1398655957
102788.9843872232
102829.7747891579
102873.3172844528
102918.5568112728
102965.9728906904
103015.5295950915
103067.4195836921
103121.7061278162
103178.5817952946
103238.1633553297
103300.6551700963
103366.2773102067
103435.2813847158
103507.9623114368
103584.7286613211
103666.0402688057
103752.491843443
103844.8230248782
103943.9377155317
104050.9324861389
104167.0727031485
104293.8031468751
104432.7856479151
104586.0917232217
104756.658848883
104948.7112867697
105167.718645171
105418.2132950029
105698.790531353
105993.0574991996
106260.0566677264
106429.3570952059
106410.1127004111
106118.9533711936
105518.9265366048
104650.4215139064
103629.684593619
102609.4422304864
101722.6980838845
101042.9797749519
100578.8461734346
100294.4408844945
100137.2355550293
100058.5799841757
100022.881829466
100008.1711373224
100002.6651055573
100000.7932050981
100000.2152481996
100000.0532131991
100000.0119776088
100000.0024528115
100000.0004568448
100000.0000773263
100000.0000118959
100000.0000016616
100000.0000002108
100000.0000000243
100000.0000000025
100000.0000000003
100000
99999.99999999997
100000
100000.0000000001
100000
100000
100000
100000
99999.99999999994
100000
100000
100000.0000000001
102542.6962775487
102598.5063144705
102615.1443662964
102657.9756966325
102691.8320943741
102728.4990528987
102769.4105794181
102808.3613346839
102852.1255526131
102895.906293728
102942.3898796952
102990.5615751726
103040.8652124609
103093.2341475572
103147.8413454475
103204.7156741271
103264.0123054839
103325.8100661144
103390.2609992742
103457.5588949417
103527.8863090535
103601.4847098261
103678.6925360043
103759.8953016135
103845.6161126167
103936.5192863856
104033.4421630111
104137.4344446923
104249.7292883031
104371.7941030031
104505.3674596271
104652.7395186213
104817.2950099097
105004.1823103799
105220.4998196829
105473.3190842406
105764.4699693401
106080.596159185
106381.9263166926
106595.2044527504
106621.4532221563
106365.1154832373
105777.425674481
104893.150532995
103832.5771162988
102760.2219069198
101822.4326443794
101101.8231983089
100609.8667899185
100309.0545936513
100143.3724837302
100060.8628332449
100023.6244773314
100008.3770413644
100002.710920824
100000.7998818678
100000.2149981978
100000.0525973139
100000.0117034243
100000.002366613
100000.0004347151
100000.0000724705
100000.0000109624
100000.0000015028
100000.0000001867
100000.000000021
100000.0000000021
100000.0000000002
100000
99999.99999999999
100000
100000
100000
100000
100000
100000
99999.99999999997
100000.0000000001
100000.0000000001
100000
102592.5733272755
102654.9840468818
102671.1930724262
102720.1275051866
102755.7127769044
102796.4977343034
102840.4412281916
102882.9820314119
102930.1018270215
102977.4136635445
103027.3409250368
103078.9648738651
103132.6754246683
103188.3837860887
103246.2324124849
103306.2262920522
103368.4750782115
103433.018600532
103499.9614035926
103569.4580242101
103641.6315627927
103716.6743932213
103794.8546866551
103876.4815647358
103962.0028813137
104051.9990371867
104147.2189220811
104248.6303418705
104357.3765763332
104474.8477373146
104602.7160768421
104743.2897583364
104900.1606231803
105079.1442724056
105288.733922044
105538.359791809
105832.9412271924
106162.0493139727
106487.0522978788
106732.1071514657
106790.9477856364
106557.521524449
105973.6402302023
105070.7210201899
103974.078918695
102859.0087285707
101882.5852195133
101133.5359243422
100624.1051539764
100314.2783573404
100144.7487619347
100060.9562174482
100023.4533784537
100008.2369860897
100002.6379761554
100000.7696236144
100000.2043507416
100000.0493348223
100000.0108208313
100000.0021542742
100000.0003890401
100000.0000636649
100000.0000094361
100000.0000012649
100000.0000001532
100000.0000000167
100000.0000000016
100000.0000000001
100000
99999.99999999999
100000
100000
100000
100000.0000000001
100000
100000
99999.99999999997
99999.99999999996
99999.99999999991
99999.9999999999
102653.8582088929
102723.5492825684
102739.3229188981
102795.1489168964
102832.1765211119
102877.7634619101
102925.0412424496
102971.7509343014
103022.6656033195
103074.0421603338
103127.9206851819
103183.5126582586
103241.1308826484
103300.672952318
103362.2366565493
103425.8057949787
103491.4396297935
103559.1429036607
103628.9793990981
103701.0420277538
103775.4008706149
103852.1968821961
103931.6412306896
104013.9798618194
104099.5909156385
104188.9850056817
104282.8280391788
104382.0050422455
104487.5602249686
104600.7603535432
104723.1248723321
104856.8331474609
105005.489562566
105175.3504693478
105376.0709822252
105619.1873212107
105912.3684199293
106247.6220610801
106586.8441798394
106851.2219914358
106927.6841250236
106701.6025549249
106108.6755353355
105180.5369164973
104049.5177801089
102900.8610477434
101899.1709763999
101135.4958544394
100620.1196115434
100309.4494894882
100141.1165452573
100058.7918456048
100022.3608433848
100007.7565454284
100002.4513083397
100000.7050382104
100000.1843555037
100000.043779781
100000.0094330201
100000.0018421667
100000.0003257812
100000.0000521081
100000.0000075312
100000.0000009817
100000.0000001153
100000.0000000122
100000.0000000011
100000.0000000001
99999.99999999994
99999.99999999999
100000
100000
100000.0000000001
99999.99999999999
100000
99999.99999999999
100000
100000
100000
99999.99999999996
102725.6445454359
102803.7790748504
102819.0570877728
102882.9861264135
102921.4134816341
102972.5785640973
103023.6688874868
103075.2099646502
103130.4604732363
103186.4770881805
103244.8493313123
103304.9368543061
103366.958705947
103430.8029231435
103496.5113969791
103564.0392436682
103633.3926635849
103704.5387530366
103777.4981710002
103852.2952370371
103928.9548510777
104007.5568494017
104088.2617908995
104171.2728438747
104256.9099625956
104345.6390976623
104438.070073783
104535.0283001892
104637.4796775501
104746.5643705945
104863.6131813624
104990.5920043178
105131.0020246264
105291.4029691088
105482.4592701478
105717.5702298999
106006.6768282565
106343.3697974172
106688.8916951057
106960.4589125539
107038.328209774
106801.4613577577
106183.6139450008
105221.2928020393
104056.5251058164
102883.6056992431
101870.8578935942
101107.2216254029
100597.9627075865
100294.821886836
100132.7271550414
100054.5442581546
100020.4450809586
100006.9827529688
100002.170526899
100000.6133292296
100000.1573605147
100000.0366141384
100000.0077169536
100000.0014713798
100000.0002534845
100000.0000393923
100000.0000055134
100000.0000006931
100000.0000000781
100000.0000000078
100000.0000000007
100000
100000
100000
100000
100000.0000000001
100000
100000
100000
100000
100000
99999.99999999999
99999.99999999997
99999.99999999994
102808.2630263759
102896.2238399692
102911.0067793134
102984.35640797
103024.3926692492
103082.0995424871
103137.6045861353
103194.676804172
103254.9031284563
103316.185608766
103379.6478781895
103444.7874238438
103511.7174972868
103580.308731594
103650.5381705732
103722.3227770874
103795.614321898
103870.3299874978
103946.4317101874
104023.8786448148
104102.6626665467
104182.8107399165
104264.431319419
104347.7003531329
104432.9021554551
104520.4836538515
104611.0381079928
104705.368301701
104804.3981966873
104909.1599230789
105020.7905782001
105141.011967234
105273.1920621141
105424.1791422861
105605.6221164735
105832.5950353776
106116.718105788
106451.9535926643
106797.1639954004
107064.0690457069
107126.21419211
106858.7326730967
106198.4771629482
105192.2816506563
103994.7360421026
102807.8067738749
101799.0358732339
101050.4316479907
100559.1971622318
100271.5509845876
100120.306253876
100048.609560481
100017.8965129821
100005.9968606141
100001.826543317
100000.5050113613
100000.1265688187
100000.0287124848
100000.0058867403
100000.0010889034
100000.000181389
100000.0000271436
100000.0000036384
100000.0000004349
100000.0000000461
100000.0000000042
100000.0000000003
100000
99999.99999999999
99999.99999999994
100000.0000000001
100000
100000
100000
100000
99999.99999999997
99999.99999999996
99999.99999999996
100000
100000
102903.1852267362
103002.2621614762
103016.637340362
103100.5460516324
103142.7362393124
103207.9757976572
103268.6697536793
103332.0049700277
103397.9430498293
103465.1596762421
103534.3436416115
103605.0926741693
103677.4096472548
103751.1328294417
103826.164984254
103902.3701616841
103979.6374000682
104057.826566738
104136.8346544941
104216.5612008224
104296.9624102155
104378.031376492
104459.8416469622
104542.5602931947
104626.4633235773
104712.0053009176
104799.8051688222
104890.6875933593
104985.572929871
105085.407125094
105191.1401886786
105304.2579064433
105428.0506330802
105569.7750002982
105742.1774999819
105961.8678339408
106241.4047170342
106573.527226105
106912.4944232672
107162.6730621061
107191.0180417777
106872.129646319
106151.8797594152
105093.2629012507
103865.8129581249
102676.8078850616
101687.7855732945
100968.933615826
100506.7518938984
100241.5632071452
100104.9595322421
100041.5482337341
100014.9679165538
100004.9007100158
100001.4560806744
100000.3919491693
100000.0954157897
100000.0209659771
100000.0041493024
100000.0007376803
100000.0001174427
100000.0000166695
100000.0000020965
100000.0000002312
100000.000000022
100000.0000000017
100000.0000000001
100000.0000000001
100000
99999.99999999996
100000
100000
100000
100000
99999.99999999996
99999.99999999991
99999.99999999994
99999.99999999996
100000
100000
103011.3818431604
103123.1257569302
103137.4932169969
103233.1161900868
103278.4676394108
103352.1517785704
103419.0420927533
103489.4479209117
103561.9445148809
103635.8159149319
103711.3777991258
103788.276362204
103866.4006274179
103945.5345727756
104025.4952754854
104106.077620729
104187.0950442634
104268.346018742
104349.669698227
104430.9236186255
104512.0339627938
104592.9815308909
104673.832104984
104754.7654421035
104836.0870181629
104918.2986901361
105002.0901331503
105088.3506223942
105178.0275283069
105271.990869035
105371.0044012358
105476.3563683933
105591.3999219083
105724.0532692832
105888.3915505592
106102.4056484122
106378.6120097667
106706.4963926324
107033.079401981
107253.4944983815
107228.8497370027
106837.5741833335
106041.2929469322
104924.784977307
103673.6494433408
102496.6959957382
101543.6237996977
100868.2689101424
100444.5849927696
100207.3023964004
100088.012540774
100033.9978665691
100011.9327154249
100003.7990885945
100001.0950581257
100000.2851532193
100000.0669161707
100000.0141104917
100000.0026642455
100000.0004483285
100000.0000668004
100000.0000087227
100000.0000009808
100000.0000000916
100000.0000000064
100000.0000000002
100000
100000
99999.99999999996
100000
100000
99999.99999999996
100000
100000
100000
100000
99999.99999999987
99999.99999999997
100000
100000.0000000001
103134.1638063484
103260.5575175307
103275.6723535008
103384.1892726254
103434.1748230095
103517.065069306
103591.3507314036
103669.7272599198
103749.7262783658
103831.0147323128
103913.6017986385
103997.1217903166
104081.3401899992
104165.9614041972
104250.7058017888
104335.2870099214
104419.4401712588
104502.9098378115
104585.4938886424
104667.0326123857
104747.4471647517
104826.7368245775
104904.9996665327
104982.4657384055
105059.5154118469
105136.7469747881
105214.9685431208
105295.1716625579
105378.3429225825
105465.26018528
105556.4900211274
105653.193117412
105759.020294766
105882.9341443252
106040.6299318062
106251.1934481452
106525.7399695228
106847.9816462119
107154.8136288309
107330.6677953109
107232.7051937417
106748.9052198462
105863.9152627535
104688.9282864724
103424.7051152401
102276.1559950464
101375.0363224259
100755.1571764638
100377.2103541903
100171.4031393474
100070.8193462952
100026.5759220644
100009.0415551699
100002.7826169895
100000.7726303499
100000.1929460419
100000.0431675175
100000.008608965
100000.0015197757
100000.0002349647
100000.0000312412
100000.0000034433
100000.0000002858
100000.0000000111
99999.99999999828
99999.99999999949
99999.99999999994
99999.99999999996
100000
100000
99999.99999999999
99999.99999999999
100000
99999.99999999993
99999.99999999993
100000
99999.99999999991
100000
99999.99999999999
99999.9999999999
103274.979923673
103417.5763805075
103434.1462139452
103556.259065107
103613.0603265638
103705.8623067315
103788.9979145664
103876.3476964832
103964.8409482572
104054.2846834196
104144.4331989731
104234.8497994014
104325.1639023205
104414.978718045
104503.9127331844
104591.5989157185
104677.7085122521
104761.9553071648
104844.1295103668
104924.0951286089
105001.8154026214
105077.3556884326
105150.8984072679
105222.7769900997
105293.5021433132
105363.82383204
105434.7152695857
105507.2910189549
105582.5558161648
105661.1450956143
105743.406956836
105830.4979890809
105926.7186284798
106042.5655904297
106195.6130720956
106405.4564749736
106679.9162200718
106993.9263939163
107271.4094932788
107385.5978211334
107193.2820669557
106599.148947756
105618.0716396388
104390.3431453916
103128.3604113278
102026.1787802906
101191.8405072791
100636.8271300122
100309.1771320613
100136.3592677663
100054.5826597959
100019.7951342262
100006.4876776123
100001.9154223919
100000.5073840101
100000.1199622912
100000.0251337774
100000.0046163353
100000.0007299959
100000.0000959199
100000.0000095692
100000.0000004772
99999.99999993405
99999.9999999758
99999.99999999546
99999.99999999939
99999.99999999988
99999.99999999999
100000
100000
99999.99999999994
99999.99999999993
99999.99999999999
99999.99999999999
99999.99999999999
99999.99999999997
99999.99999999997
99999.99999999999
99999.99999999997
99999.99999999985
103434.2434931831
103595.7425576507
103616.0485928689
103752.8822724885
103819.2237949074
103922.7904722187
104016.4257684004
104113.7975375979
104211.6910059795
104309.8458771266
104407.7914881656
104504.9714216476
104600.8692595945
104694.9764618411
104786.8189674417
104875.9719772666
104962.0830929042
105044.8851948947
105124.2202684396
105200.0402860671
105272.4193981883
105341.5549091469
105407.7783404695
105471.5897860036
105533.6904336668
105595.0369503914
105656.7987742664
105720.2011095463
105786.199964844
105855.1994180853
105927.322731092
106003.9371646731
106090.4796100204
106199.5328283123
106350.6246908597
106562.7740792847
106837.9615722938
107138.9822020368
107374.4419297796
107407.4740128124
107100.1400129994
106382.1352309811
105304.7346958577
104037.0990547714
102796.8678960935
101759.3868074904
101004.3060459813
100520.2546387512
100244.5496482054
100104.2290423256
100040.2128343658
100014.0060518669
100004.3871409144
100001.229653334
100000.3062730951
100000.067104556
100000.0127213395
100000.0020228841
100000.0002506692
100000.0000182445
99999.99999869168
99999.99999919672
99999.99999981512
99999.99999996892
99999.99999999566
99999.99999999948
99999.99999999999
100000
100000
100000.0000000001
99999.99999999999
99999.99999999999
100000.0000000001
100000
99999.9999999999
100000
100000
100000.0000000001
100000.0000000001
99999.99999999999
103617.690060022
103800.5691457761
103827.1341450271
103979.2918682699
104058.2740947422
104173.4115899852
104279.1066646957
104387.4224356309
104495.3345856335
104602.3481267492
104707.7676781677
104810.882230692
104911.0330222618
105007.616611544
105100.1085615292
105188.0872325504
105271.2546400965
105349.4502708454
105422.6616961624
105491.0202675786
105554.7974884835
105614.4002897202
105670.3781549501
105723.4607598899
105774.595212078
105824.9825618365
105875.9867887911
105928.8789012066
105984.4395425575
106042.7313139318
106103.7002567564
106169.2777503196
106246.6666483636
106351.0457196732
106503.5930744992
106720.9735078727
106996.1153912773
107276.2805719423
107453.5406952244
107384.222312432
106943.4195372413
106094.4924077478
104929.0247768248
103641.1488968206
102444.8600214566
101489.0546373503
100822.1789183782
100411.4506152363
100186.4939574825
100076.4394175332
100028.2529183182
100009.3762229212
100002.7767284528
100000.7273399802
100000.166191176
100000.0323235102
100000.0050785237
100000.0005498805
100000.0000053255
99999.99998389281
99999.99999489791
99999.99999893236
99999.99999982283
99999.99999997533
99999.99999999712
99999.99999999972
100000
100000
100000
100000
100000.0000000001
100000
100000
100000.0000000001
99999.99999999993
99999.99999999996
100000.0000000001
100000.0000000001
100000.0000000001
100000
103830.1446513471
104037.1810647533
104073.1536908281
104241.3021139319
104336.4133531951
104464.192479195
104583.3552042673
104703.2836315404
104821.2964243376
104936.5689681158
105048.1856559641
105155.2884124345
105257.1243391483
105353.067896385
105442.644232361
105525.5532014533
105601.6809260801
105671.1040930147
105734.0804958694
105791.0295890599
105842.511470433
105889.2145062755
105931.9628142516
105971.7628248773
106009.8388701706
106047.6392970168
106086.6646557772
106128.0949908263
106172.3564028186
106219.0693311109
106268.1676090019
106322.6843918403
106392.3124640798
106495.1383197914
106653.0815258625
106877.8573734049
107149.6368256509
107397.2526943283
107496.8951715223
107303.9365384749
106715.9287000649
105737.6128973579
104501.2374160529
103218.1711332993
102088.3797890183
101227.9587220069
100653.7840000821
100314.9356999585
100137.0452635961
100053.7186491206
100018.8794743339
100005.9069117267
100001.6274636009
100000.387857695
100000.0772685578
100000.0118421433
100000.0009864168
99999.9998579368
99999.99991150828
99999.99997528092
99999.99999488753
99999.99999913885
99999.99999987781
99999.99999998522
99999.99999999847
99999.99999999984
99999.99999999997
99999.99999999997
100000
100000
100000
99999.99999999999
99999.99999999999
100000
99999.99999999999
100000.0000000001
100000
100000
100000
100000
104075.7057684759
104311.7249742706
104361.2143394481
104546.7728301965
104661.7055254553
104803.325446576
104936.7804253644
105068.2118420863
105195.2738308167
105316.8200521265
105431.7707742863
105539.2071846354
105638.4114181489
105728.8938641894
105810.4084256592
105882.9631349811
105946.8098436791
106002.4243280944
106050.4686056864
106091.7498305928
106127.1827219065
106157.776807609
106184.6529214146
106209.1043710499
106232.6244316002
106256.8535273673
106283.2945955272
106312.826008747
106345.307670603
106379.8938684325
106416.8587106271
106461.0653205979
106525.4132432098
106630.7842586449
106798.1239279946
107030.8174119627
107292.4774196713
107491.8448429619
107492.3751328251
107156.8415560289
106415.2732821802
105318.9724514941
104036.7707303799
102786.3028651259
101743.230046301
100987.0147304154
100505.2113655697
100233.3971240166
100097.0380554861
100036.1347567357
100011.9583250818
100003.473288085
100000.8664855314
100000.1777329226
100000.026609603
100000.0013853153
99999.9992100672
99999.99963427729
99999.9998995701
99999.99997877041
99999.99999631604
99999.99999946376
99999.99999993428
99999.99999999326
99999.99999999948
100000
100000
100000
100000.0000000001
100000
100000
100000
100000.0000000001
100000
99999.99999999991
100000
99999.99999999999
100000
99999.99999999993
99999.99999999993
104365.6581458452
104634.7139777489
104703.0480133161
104906.4984965085
105044.3684805412
105200.4216854225
105347.5559809988
105488.6972287933
105621.741706787
105745.3488841818
105858.4358177231
105960.2307287309
106050.2994219352
106128.5562275036
106195.2508469135
106250.9439764211
106296.4576139863
106332.8184560509
106361.1890778842
106382.8068966484
106398.9435537521
106410.9069399296
106420.0815648946
106428.0100854298
106436.3901240022
106446.9287146313
106460.9152448372
106478.6542236697
106499.2581790648
106521.5448050466
106546.7191831068
106582.3482143584
106645.0537487779
106757.7455823658
106937.7871824465
107176.3219677846
107417.1568910131
107549.2791526524
107429.3306417902
106937.6635082878
106045.7728291924
104852.6487415678
103555.1011444914
102364.3365945242
101423.3180070462
100774.2639217051
100379.9358957267
100167.6921983515
100066.2524855227
100023.2441451333
100007.1452581689
100001.8788993176
100000.4018708725
100000.0603120273
100000.0015425754
99999.99712284788
99999.99873360753
99999.99964233764
99999.99992124438
99999.99998577662
99999.99999786534
99999.99999973564
99999.99999997386
99999.99999999809
99999.99999999991
100000
100000
100000
100000
99999.99999999999
100000
100000
99999.99999999999
99999.99999999999
99999.99999999999
100000
99999.9999999999
99999.99999999996
99999.99999999993
99999.99999999991
104710.4185515548
105018.5543133565
105111.8075209699
105333.3030357249
105495.5914528053
105665.1638361973
105822.9022706902
105969.1484392588
106102.0292989616
106220.3147542956
106323.2683867285
106410.6601494533
106482.7458305237
106540.2226660549
106584.1559618048
106615.8978942875
106636.9902549905
106649.0729420797
106653.7968303389
106652.7637688595
106647.5072586852
106639.5346536318
106630.406759963
106621.8285032171
106615.5831450991
106613.2466065293
106615.6071262972
106622.1160213339
106631.0633756442
106641.2937326811
106655.7773618272
106685.6588843054
106751.3651675425
106876.233991522
107070.6501423083
107309.5916791488
107515.1442856464
107559.4693216675
107300.8205229975
106647.7639213431
105619.367037489
104358.4817499185
103077.7427518181
101969.59215508
101139.2424604255
100594.3307677721
100278.862525578
100117.1284049063
100043.6977306632
100014.2883083905
100003.9958477809
100000.9073197969
100000.1432626715
100000.002804686
99999.99165927799
99999.99615967658
99999.99885239147
99999.99973278536
99999.99994924794
99999.99999208508
99999.99999900741
99999.99999990696
99999.99999999521
100000.0000000003
100000.0000000001
100000
99999.99999999994
100000
100000
100000
99999.99999999994
100000
100000
100000
99999.99999999994
99999.99999999997
99999.99999999994
100000
100000
100000
105128.7311555803
105479.5439137841
105604.3478482914
105841.4865435047
106026.3177256781
106205.3859014684
106366.6857585989
106509.0936478368
106631.2798583574
106732.750806263
106813.7721569048
106875.2762813331
106918.7326122285
106946.007702827
106959.2173236899
106960.5963501926
106952.3762584534
106936.6890914028
106915.4976957637
106890.5699087694
106863.5150106541
106835.8874970562
106809.3056037748
106785.5241196748
106766.2473524766
106752.6643833655
106744.7462541984
106740.8692085921
106738.6246077665
106737.5171071061
106743.2694123016
106771.2749800905