/*--------------------------------*- C++ -*----------------------------------*\
| =========                 |                                                 |
| \\      /  F ield         | OpenFOAM: The Open Source CFD Toolbox           |
|  \\    /   O peration     | Version:  v1912                                 |
|   \\  /    A nd           | Website:  www.openfoam.com                      |
|    \\/     M anipulation  |                                                 |
\*---------------------------------------------------------------------------*/
FoamFile
{
    version     2.0;
    format      ascii;
    class       surfaceScalarField;
    location    "0.001";
    object      phi;
}
// * * * * * * * * * * * * * * * * * * * * * * * * * * * * * * * * * * * * * //

dimensions      [1 0 -1 0 0 0 0];
oriented        oriented;


internalField   nonuniform List<scalar> 
31760
(
-0.000357041190298162
-0.03474440142536329
0.03537011046891074
-0.0007377751900542438
-0.03650034483766033
0.03716329114028405
-0.001137744190413976
-0.03823887113088515
0.03893667986620052
-0.001558391506634459
-0.03996253563822898
0.04069757360089423
-0.001999410400996313
-0.04186732711598165
0.04263906143996714
-0.002462618697509843
-0.04377756772576144
0.04458934218699881
-0.002944998613776808
-0.04584006628327126
0.04668918083281642
-0.003449995810783893
-0.04795929739493083
0.04885073034052129
-0.00397599006924137
-0.05019585126221398
0.05112869238098883
-0.00452509257793342
-0.05252553394186749
0.0535033488609163
-0.005097633373243387
-0.05496452890000666
0.05598882431140773
-0.005694602411433471
-0.05751405970735799
0.05858718862535899
-0.006316530641772734
-0.0601807528732742
0.06130465895920531
-0.006963887107503022
-0.06297082419256637
0.06414736612522899
-0.007636986176482515
-0.06588935254401103
0.06712034526810982
-0.008336539557371986
-0.06894410427888867
0.07023174607318104
-0.009062319498414186
-0.07213894897669856
0.07348462333829445
-0.00981508454770362
-0.07548330444203649
0.076889449906695
-0.0105942115419616
-0.07897929472056316
0.08044710865044476
-0.01140047115158112
-0.08263886320433167
0.08417106008321987
-0.01223225553171524
-0.08646201164628266
0.08805900611546626
-0.0130896545907658
-0.09046411385350608
0.09212805805398783
-0.01397009292027527
-0.09464334562694751
0.09637358256393024
-0.0148727981767373
-0.09901882443882942
0.1008162495566219
-0.01579443953892435
-0.1035870826384039
0.1054494738033231
-0.01673360898880478
-0.1083709175258334
0.1102971659419586
-0.0176869861568475
-0.1133650236057969
0.1153507624023802
-0.01865357607391996
-0.1185954928996455
0.1206367485450785
-0.01963186959718209
-0.1240539911098988
0.1261435186405843
-0.02062282039421844
-0.1297690560313685
0.1318988494578692
-0.02162774183049564
-0.1357277703506458
0.137887148988912
-0.02264716088480144
-0.1419600049930091
0.1441360739517294
-0.02368037047773785
-0.1484464671479742
0.1506256265987636
-0.02472287252515686
-0.1552166851116053
0.1573812878967195
-0.02577956187173938
-0.1622467575472087
0.1643788675726977
-0.02689027271658604
-0.1695601696052272
0.1716434720349553
-0.02815994075766478
-0.1771292290528528
0.1791424921926838
-0.02980460716604261
-0.1849497340280143
0.1868770490606227
-0.03215866957365466
-0.1929852873343978
0.1948192768703753
-0.03561941873163574
-0.2011912528423761
0.2029395138706167
-0.04051584274281847
-0.2095409336998073
0.2112308762339288
-0.04695932466307132
-0.2180201098264404
0.2197139559584399
-0.05469469581766523
-0.2266942347328868
0.228456133039584
-0.06314750680024339
-0.2356823732379607
0.2375786053037
-0.07159315716568365
-0.2451657998821307
0.2472433516644129
-0.07939005438676543
-0.2553257690984868
0.2576019938268636
-0.08615216767707749
-0.2663016211562807
0.2687636442396035
-0.09179029669107057
-0.2781684349649071
0.2807817879016273
-0.09644168464768062
-0.2909359875963496
0.2936584105924901
-0.1003503447112598
-0.3045787847302724
0.3073690894025202
-0.103764225263618
-0.3190597138748344
0.3218830293235717
-0.1068764995659987
-0.3343524258087214
0.337180354428714
-0.1098102410444656
-0.3504486630069089
0.3532575245875502
-0.1126285562078178
-0.3673587773901944
0.3701270522025901
-0.1153530309533729
-0.3851073081904225
0.3878134874782652
-0.117980241643623
-0.4037284546287875
0.4063495622887132
-0.1204927251245357
-0.4232625859250293
0.4257732117626806
-0.1228649106476873
-0.4437541743095364
0.4461258439910838
-0.1250657288650295
-0.4652508319361584
0.4674515194198853
-0.1270594474157759
-0.4878029561740709
0.4897966444977007
-0.1288056852521576
-0.5114636901627498
0.5132099216167695
-0.1302590792906554
-0.5362890104301197
0.5377424032391274
-0.1313687984418351
-0.5623378690489882
0.5634475879836924
-0.1320779724164122
-0.5896723591767217
0.5903815331165432
-0.1323230527912532
-0.6183578954626204
0.6186029758323458
-0.1320331068229595
-0.6484634071029073
0.6481734611339258
-0.131129039102611
-0.6800615437302784
0.6791574760098451
-0.129522734264117
-0.7132288948982042
0.7116225900597007
-0.1271161129706624
-0.7480462241415126
0.7456396028480567
-0.1238000925709339
-0.7845987187029995
0.7812826983032706
-0.119453442956149
-0.8229762561117463
0.8186296064969609
-0.1139415272132382
-0.8632736888997291
0.857761773156819
-0.1071149156441
-0.9055911488518085
0.8987645372826697
-0.0988078605939556
-0.9500343723028921
0.9417273172527487
-0.08883661829565898
-0.9967150481246481
0.9867438058263494
-0.0769976025782195
-1.045751190185374
1.033912174467934
-0.06306535379610752
-1.097267536220633
1.08333528743852
-0.04679030469801852
-1.151395975218725
1.135120926120636
-0.02789632315513986
-1.208276005610043
1.189382024067164
-1.268055226747123
1.246236913285252
-0.0003298594286331609
-0.03416833947598284
-0.0006865936627247663
-0.03588460056694126
-0.001061027773756071
-0.03758997105695732
-0.001453218114823275
-0.03928042600564659
-0.001867659589293048
-0.04114723001273851
-0.002300256030569477
-0.04302246026232915
-0.002753087819976234
-0.04504724547030308
-0.003225899144428109
-0.04712768148378003
-0.003719220434136281
-0.04932402017405476
-0.004234246359136665
-0.05161080990958576
-0.004772006168287195
-0.05400459998052912
-0.005333378160379775
-0.05650653349163471
-0.005919240362482658
-0.05912319113688015
-0.006530103453639857
-0.06186108287820923
-0.007166455974346769
-0.06472516514533931
-0.007828766066301071
-0.06772315136991325
-0.008517000209870429
-0.07085915906223943
-0.009231774065067073
-0.0741417803826948
-0.009972409468311912
-0.07757407768838978
-0.01073940257015781
-0.08116652844712338
-0.01153105797402963
-0.08492094749824572
-0.01234686163500655
-0.0888512243125919
-0.01318407748109823
-0.09295751500670665
-0.01404069014650933
-0.09725808313368522
-0.01491293895989392
-0.1017512653590295
-0.01579721854503139
-0.1064599818795304
-0.01668932790949146
-0.111380222225578
-0.01758470599322263
-0.1165397090705844
-0.0184801775485214
-0.1219307990104488
-0.01937153342458879
-0.1275857968530431
-0.02025769864874273
-0.1334914957168087
-0.0211328655371777
-0.139684158543965
-0.02199323885766511
-0.1461424797636215
-0.02282586762390756
-0.1529055231140891
-0.02363134780698795
-0.1599449067011092
-0.0244311200781544
-0.1672957523593583
-0.02532635586820937
-0.174923445725422
-0.02652683321083729
-0.1828321475913927
-0.0283901484520239
-0.1909723672530545
-0.03136636834388464
-0.1992906808471334
-0.03587331214276283
-0.2077364858307679
-0.04210697768651245
-0.216266714174176
-0.04987683313330196
-0.2249299003168922
-0.05860479712490556
-0.2338331771291293
-0.06748584144960446
-0.2431745598559154
-0.07576603252290309
-0.2531595030761754
-0.08295595985274125
-0.2639617857308992
-0.08890749054387327
-0.2756791716159864
-0.09374392235698711
-0.2883345847845381
-0.09772853344074496
-0.3019033803281785
-0.1011417685000334
-0.3163439812783735
-0.1042088403739579
-0.3316237892512398
-0.1070773305911457
-0.3477298177283872
-0.1098265503039233
-0.3646698668607942
-0.1124878890045222
-0.3824681248335294
-0.1150638445365245
-0.4011599173100342
-0.1175409578783402
-0.4207877364628501
-0.1198969505051059
-0.441398811276359
-0.1221039595491925
-0.4630439824807671
-0.124129663615874
-0.4857772889685164
-0.125937430759399
-0.5096559307814353
-0.1274860573486329
-0.5347403853303925
-0.1287293357074617
-0.5610945909508884
-0.1296155339890226
-0.5887861609367735
-0.1300868113245991
-0.6178866181331134
-0.1300785706479609
-0.6484716477803543
-0.1295187451807355
-0.6806213691976017
-0.1283270124560066
-0.7144206276229438
-0.1264139287632879
-0.749959307834233
-0.1236799761175346
-0.7873326713487523
-0.1200145130603341
-0.8266417191689465
-0.1152946197427098
-0.8679935822173522
-0.1093838267966059
-0.9115019417979131
-0.1021307164686463
-0.9572874826308529
-0.09336738335354594
-1.00547838123975
-0.08290774081806548
-1.056210832720855
-0.07054565783648552
-1.109629619202215
-0.05605290945496233
-1.16588872360025
-0.03917692245037956
-1.225151992614625
-1.287593853261881
-0.0002957912694801722
-0.03365365392842298
-0.000623958427754874
-0.03532551784736611
-0.0009703300612014486
-0.03699784288948897
-0.001333480390190889
-0.03865745957022599
-0.001720869972470681
-0.04048543595394231
-0.002124383909398233
-0.04232923138507723
-0.00255015547611294
-0.04431565197027145
-0.00299442850067431
-0.04636044293803215
-0.003459844032746281
-0.04851750213640015
-0.003946628198236287
-0.05076343989574904
-0.004456260449501719
-0.05311363209981101
-0.004989419156069083
-0.05556981183360962
-0.005547150237685828
-0.05813816531100293
-0.006129726322024041
-0.06082583072862306
-0.006737837487965612
-0.06363722428276022
-0.007371794030252897
-0.06658028766462434
-0.008031729749683646
-0.06965901248116387
-0.008718483226795287
-0.07288102227140675
-0.009431311281561751
-0.07625046679157411
-0.0101712503657799
-0.07977562666917636
-0.01093623788192813
-0.08346081592104879
-0.01172647870410714
-0.08731714145158395
-0.01253833021799395
-0.09134804063799569
-0.01337028608291467
-0.09556914948949424
-0.01421693664023636
-0.09998227265721432
-0.0150748660872955
-0.1046080210879853
-0.01593710695433776
-0.1094458645991984
-0.01679855771810779
-0.1145220440107212
-0.01765161005659728
-0.1198324752221053
-0.01849042462179295
-0.1254094543696258
-0.01930756655746431
-0.1312433529759119
-0.02009468650421985
-0.1373724466413487
-0.02083943532399209
-0.1437788895382474
-0.02152415320423318
-0.150506567541493
-0.02213593101471248
-0.1575295617699776
-0.02268471675609342
-0.1648904253421312
-0.02325279229538079
-0.1725552105052096
-0.02404194322498147
-0.1805343864682681
-0.0254192543966166
-0.1887722555602794
-0.0278822539980167
-0.1972080539851953
-0.03193670173441714
-0.2057691041302982
-0.03788279808912225
-0.2143854134264679
-0.04561393665908486
-0.2230795737574489
-0.05456276779210967
-0.2319436977202699
-0.06385819258521772
-0.2411825997978827
-0.07262928794526985
-0.2510243686837277
-0.08027586282341594
-0.2616738911561232
-0.08657916069349494
-0.2732540183649638
-0.09164246864829699
-0.2858019788723213
-0.0957448703343087
-0.299296355143372
-0.09919886395425072
-0.3136923769669251
-0.1022620573819839
-0.3289522375807514
-0.105107219987813
-0.3450586755871042
-0.1078303114001599
-0.3620171870987011
-0.1104727990009553
-0.3798515824276979
-0.1130432295274831
-0.398598192497299
-0.1155322031152552
-0.4183014227565934
-0.117920754121002
-0.4390110001335418
-0.1201842306469066
-0.4607806933268502
-0.1222937170743092
-0.4836678457340499
-0.1242163167821747
-0.5077333401399473
-0.1259149626454791
-0.5330417411991742
-0.1273480370835174
-0.5596615168142979
-0.1284689015946626
-0.5876652964733876
-0.1292253644168442
-0.6171301553178444
-0.1295590906248522
-0.6481379215732564
-0.1294049515205913
-0.6807755083019731
-0.1286903078363044
-0.7151352713072421
-0.127334220272432
-0.7513153953981059
-0.1252465801577654
-0.7894203114634185
-0.1223271522923049
-0.8295611470344064
-0.1184645212471816
-0.8718562132624738
-0.1135349315345669
-0.9164315315105271
-0.1074010111163764
-0.9634214030490427
-0.0999103666823308
-1.012969025673794
-0.09089403798821345
-1.065227161414972
-0.0801647972941426
-1.120358859896286
-0.06751527856745482
-1.178538242326938
-0.05271591960620486
-1.239951351575876
-1.304797074286675
-0.0002654975932270354
-0.03319672405394203
-0.0005689658600942428
-0.03481917058806654
-0.0008911022412146161
-0.03645856947334208
-0.001228907464518817
-0.03808977694563764
-0.001591943506600072
-0.03987914461327002
-0.001969539168656064
-0.04169463041861705
-0.002371176863325473
-0.04364240932542131
-0.002789942580383151
-0.04565470175740951
-0.003230878997855708
-0.04777323238347058
-0.003693058469891214
-0.0499803888237011
-0.004178620996956816
-0.05228852991798556
-0.004688066649926222
-0.05470079431106097
-0.005222724972697436
-0.05722260316717343
-0.005782669623529081
-0.0598621248749327
-0.006368858921182969
-0.06262284628228834
-0.006981507593630135
-0.0655132380185732
-0.00762096531859236
-0.06853686371671923
-0.008288197267065195
-0.07170040841369975
-0.008982670385956465
-0.07500897037017357
-0.009705794630162344
-0.07846839765517778
-0.01045563757755797
-0.08208563357173011
-0.01123279283127451
-0.08586861709765806
-0.0120336365530466
-0.08982424565740961
-0.01285689156204305
-0.09396506236666034
-0.0136967871998683
-0.09829657376075386
-0.01454980596053566
-0.1028363167083138
-0.01540795999152471
-0.1075874860129945
-0.01626534193986267
-0.1125737362258839
-0.01711195882999868
-0.1177950334162707
-0.01794002591850023
-0.1232820009645292
-0.01873794241284942
-0.1290295050468526
-0.01949372166605977
-0.1350759944396132
-0.02018829186239271
-0.1414085944523171
-0.02079688485046933
-0.1480741671076994
-0.02129342432395811
-0.1550518742268308
-0.02167145457061493
-0.1623909270064577
-0.02199120419602016
-0.1700617307950426
-0.02243732616483806
-0.1780823994969866
-0.02337748501654378
-0.1863958353003722
-0.0253466546282677
-0.194937546969782
-0.02893275394076245
-0.2036159888339747
-0.034545670253825
-0.2123359642764327
-0.0421741943919814
-0.2210908254237242
-0.05128063257827852
-0.2299533523374166
-0.06094078120568065
-0.2391277060719719
-0.0701738308160974
-0.2488598263344215
-0.07826753204881076
-0.2593820268722136
-0.08492921932957487
-0.2708417090952466
-0.09023804121922091
-0.283290893906379
-0.09448583082226794
-0.296712860169889
-0.09801470071591679
-0.3110610873197828
-0.1011128961325087
-0.3262938377430674
-0.1039770940200714
-0.3423904514758178
-0.1067190853943416
-0.3593546434184064
-0.1093899301852159
-0.3772100433168454
-0.1120039805458519
-0.3959939773105323
-0.1145557920250621
-0.4157526141161679
-0.1170296798645839
-0.4365379461955111
-0.1194042008936998
-0.458406382931495
-0.1216538515318908
-0.4814182434745383
-0.1237494753654943
-0.5056377264126259
-0.1256581408728131
-0.5311330776112065
-0.1273428116189803
-0.5579768463997373
-0.1287619238711019
-0.5862461842733657
-0.1298689053010011
-0.6160231738954076
-0.1306116408001919
-0.6473951860750354
-0.130931883064924
-0.6804552660373561
-0.1307646030844499
-0.7153025512877277
-0.1300372746676013
-0.7520427238149568
-0.1286690864608492
-0.7907884996701702
-0.1265700742453867
-0.8316601592498701
-0.1236401655858942
-0.8747861219219667
-0.1197681281224743
-0.9203035689739467
-0.1148304119371188
-0.9683591192343958
-0.1086898754839764
-1.019109562126937
-0.1011943835363489
-1.072722653362598
-0.09217526446642554
-1.129377978966209
-0.08144561292401731
-1.189267893869346
-0.06879842260964462
-1.25259854189025
-1.319590964566429
-0.0002361408922745977
-0.03279428183074789
-0.0005182381667817927
-0.03435949214362356
-0.0008196441806794929
-0.03596568230919907
-0.001136113676207275
-0.03757020830953441
-0.001479056540653224
-0.03932079527986179
-0.001835611909138263
-0.04111029753184302
-0.002217576125280861
-0.04301944207461182
-0.002615764573599523
-0.04500173862428182
-0.003037004602640861
-0.04708249135414199
-0.003479528942282387
-0.04925263306077924
-0.003945968668227824
-0.05152013141663395
-0.004436774494217053
-0.05389011598830456
-0.004953478072495683
-0.05636701668638853
-0.005496185162130834
-0.05896022876704827
-0.00606603933945215
-0.06167215973610571
-0.006663401460645331
-0.06451187502942418
-0.007288846056312876
-0.06748241162468596
-0.007943586075583535
-0.07058950373464866
-0.008627405541242042
-0.07383909826118011
-0.009341968635356036
-0.07723467180218004
-0.01008578381329267
-0.08078557660268594
-0.01085969226393966
-0.08449676307819565
-0.011660509816537
-0.08837833288874672
-0.01248714140166384
-0.09243990085240439
-0.01333419768774414
-0.09669029849384471
-0.01419819966641357
-0.101144027587382
-0.01507111860723515
-0.1058076277421059
-0.01594670664968131
-0.1107017846409234
-0.01681403580867953
-0.1158301961927402
-0.01766408831208766
-0.1212209440854914
-0.01848269184735616
-0.1268733175130703
-0.01925500328301815
-0.1328245120955765
-0.01995650092745503
-0.1390669150995759
-0.02055518566818045
-0.1456488138022256
-0.02101176838551609
-0.1525555652649365
-0.02130165966727414
-0.1598421702019006
-0.0214602392342894
-0.1674858727218235
-0.02164957488838454
-0.175513494424562
-0.0222296747451485
-0.1838706846907013
-0.02376298198339909
-0.1924928805148335
-0.02691016639898474
-0.2012741044393979
-0.03218726898052176
-0.2100970996914868
-0.03968259545520378
-0.2189262050350377
-0.04889994033634917
-0.2278124743866553
-0.05887507707752632
-0.2369538826608405
-0.06852811413087026
-0.2466084385383825
-0.0770407846271812
-0.2570308255574812
-0.08404913866819316
-0.2683901031179238
-0.08960797400006654
-0.2807521446454447
-0.09401993527869035
-0.2941055046818265
-0.09765379451041398
-0.3084032756445877
-0.1008253903885961
-0.3236012760809499
-0.1037527735762122
-0.3396766695794046
-0.1065618085879387
-0.3566321832881761
-0.1093120998459178
-0.3744916526554425
-0.1120232726064231
-0.3932934902001128
-0.1146936122357151
-0.4130855279472022
-0.1173106450149878
-0.4339218136084062
-0.1198561339189411
-0.4558611203537077
-0.1223080085240086
-0.478966420560315
-0.124640878605357
-0.5033048670567086
-0.1268259715978026
-0.5289479866396742
-0.128830849830823
-0.5559719685126548
-0.1306190345390965
-0.584457999618881
-0.1321495742560424
-0.6144926341860613
-0.1333765649782427
-0.6461681953538093
-0.1342486204530665
-0.679583210562646
-0.134708288295883
-0.714842883444924
-0.1346914066651224
-0.7520596054457189
-0.1341263955913428
-0.7913535107439501
-0.1329334764540117
-0.8328530783872016
-0.1310238124548188
-0.8766957859211598
-0.1282985622292384
-0.9230288191995284
-0.1246478379636377
-0.9720098434999963
-0.1199495585337731
-1.023807841556802
-0.1140681872451299
-1.07860402465124
-0.1068533427294613
-1.136592823481876
-0.09813827042395669
-1.197982966174848
-0.08773816082089236
-1.262998651493316
-1.331880826070895
-0.0002163151440471784
-0.03243416678878901
-0.0004863616847541433
-0.03393430915437542
-0.0007748662016448612
-0.03550791209811913
-0.001077989682839102
-0.03708729134657367
-0.001406884708139314
-0.0388004556210999
-0.001748991164333156
-0.04056560974744463
-0.002116572051693334
-0.0424370673373231
-0.002500168657479947
-0.04439090815008085
-0.002907278454400763
-0.04643470099760387
-0.003336007042087671
-0.04856896974356056
-0.003789328545079077
-0.05079671470057631
-0.004267733411464777
-0.05312545351813398
-0.004772933653117131
-0.05555847487118905
-0.0053051469921652
-0.05810652411931441
-0.005865673894202541
-0.06077088418952155
-0.006455104558992801
-0.06356115502136736
-0.00707432090660489
-0.06647979136586253
-0.007724689978069817
-0.06953170013221892
-0.008406523505470675
-0.0727233587411644
-0.009121505705914188
-0.07605635372183205
-0.009868810632705593
-0.07954187909378359
-0.01064934926130915
-0.0831825198601937
-0.0114606016842339
-0.08699105721048056
-0.01230164738328874
-0.0909746909035625
-0.01316781318120833
-0.09514503294444786
-0.01405586929707138
-0.09951391454045597
-0.01495833111998765
-0.1040907163828427
-0.01586911049079962
-0.1088931498816499
-0.01677734814825247
-0.1139281486670452
-0.01767368980552254
-0.119220797779203
-0.01854295108117841
-0.1247743109246891
-0.01936865426845057
-0.1306235880608043
-0.02012250287402607
-0.1367659074476264
-0.0207663123181037
-0.1432494783230486
-0.02124863197619285
-0.1500660155541794
-0.02152679655516605
-0.1572750310994554
-0.02161056630337416
-0.1648619685337485
-0.02163676858699844
-0.1728624672597205
-0.0219519408163003
-0.1812280729662286
-0.0231372189088392
-0.1898969636266252
-0.02591484570939539
-0.1987535063170537
-0.03089706764818847
-0.2076627199441858
-0.03826695310422927
-0.2165629352560772
-0.0475730796846594
-0.2254839629865873
-0.05782117409429843
-0.2346143501647091
-0.06784557053392827
-0.2442187269905721
-0.07673459401892076
-0.2545679318134506
-0.08406214045325382
-0.2658478565764699
-0.08986284681306667
-0.2781356917158471
-0.094449841988064
-0.2914249179736512
-0.09821533648314273
-0.3056693441358194
-0.1014985819324179
-0.3208239474128013
-0.1045352899024644
-0.3368651742962004
-0.1074627570851687
-0.3537957672175335
-0.1103475537994775
-0.3716402936893529
-0.1132137783612687
-0.3904384195100796
-0.1160631095976634
-0.4102395756781113
-0.1188861826130471
-0.4310996699899999
-0.1216679658635001
-0.4530795691674674
-0.124389858819438
-0.4762445801886928
-0.1270302846422423
-0.5006644520465575
-0.1295646771970763
-0.5264135961014761
-0.1319652415234308
-0.5535714045275457
-0.1342006224978738
-0.5822226186967842
-0.1362355216954194
-0.6124577349958004
-0.1380302707214815
-0.6443734463286652
-0.1395403599221324
-0.6780731213621007
-0.1407159187092199
-0.7136673246578452
-0.1415011427986573
-0.7512743813562817
-0.1418336630833471
-0.79102099045926
-0.141643850321773
-0.8330428911487741
-0.1408540492441068
-0.8774855869988257
-0.1393777350470521
-0.9245051333965848
-0.1371185845535171
-0.9742689939935301
-0.1339694535515362
-1.026956972558784
-0.1298112509902717
-1.082762227212504
-0.1245116997911278
-1.141892374681022
-0.1179239730225611
-1.204570692943416
-0.1098851930794668
-1.271037431436409
-1.341551238861368
-0.0001983274160638863
-0.03211207267319464
-0.0004595813678738148
-0.03353733222425465
-0.0007375868428053356
-0.03507987188274505
-0.001030952277512806
-0.03663415062338166
-0.001349401198836021
-0.03831119114260048
-0.001681461821228148
-0.04005252794647082
-0.002039307082957082
-0.0418868414959222
-0.002413895374396162
-0.04381248239575403
-0.002812844335557027
-0.0458194766953763
-0.003234582373718426
-0.04791783290026065
-0.003682095996259924
-0.05010585273383314
-0.004156045312411846
-0.05239339063975235
-0.004658068207394715
-0.05478276779003333
-0.005188700243328098
-0.05728580208917772
-0.005749149775690557
-0.05990300160762153
-0.00634034556172216
-0.06264409494308926
-0.006963402915047093
-0.06551106189170651
-0.0076197717280593
-0.06850809350597444
-0.008310539714337853
-0.0716415766527962
-0.009037182626974376
-0.07491216231725399
-0.009799696025351221
-0.07833197695703711
-0.01059878001393509
-0.08190233478370609
-0.01143277530903767
-0.08563776412942854
-0.0123007597615317
-0.0895440220627869
-0.013199012298534
-0.09363464599497871
-0.0141245542388583
-0.09791955249705545
-0.01507080242887837
-0.1024103013064502
-0.01603203254616805
-0.1071220527509812
-0.0169981946388725
-0.1120642957535657
-0.01796021674320344
-0.1172592047322779
-0.01890324712641946
-0.1227131534657555
-0.01981037008692962
-0.1284582567495867
-0.02065143223499767
-0.1344958588204559
-0.02138362843873914
-0.1408729271534113
-0.02194530393240549
-0.1475869637660309
-0.02227712741486705
-0.1547005163617681
-0.02236452488866905
-0.162207504650854
-0.02231924637331485
-0.1701515266990135
-0.02247208988968345
-0.1784918046952915
-0.02341690311086999
-0.1871707655901303
-0.0259266478789753
-0.1960674051650202
-0.0306955297463947
-0.2050338397121911
-0.03798797745998159
-0.2139874939359946
-0.04739103219122462
-0.2229402236474052
-0.05788484207956879
-0.2320704877851506
-0.06823219128476699
-0.2416451209373309
-0.07744626376804886
-0.2519443399907558
-0.08505440833049202
-0.2631646016114562
-0.0910798249232085
-0.2753905007476471
-0.09584763864545115
-0.2886192478175523
-0.09977018159551533
-0.3028061565900442
-0.103204984461929
-0.3179069798411568
-0.1064006870482931
-0.3338990246771282
-0.1095026259605979
-0.350786169519968
-0.1125823184092277
-0.3685943154380256
-0.1156673240643707
-0.3873645852634394
-0.1187622986088299
-0.4071479600212308
-0.1218608669987044
-0.4280020177059557
-0.1249512125308402
-0.449989450231149
-0.1280182618524698
-0.4731775816759628
-0.131044323724418
-0.4976384005006995
-0.1340091135515325
-0.5234488081754611
-0.1368895528860371
-0.5506909655101013
-0.1396594810367057
-0.5794526905939738
-0.1422893193332772
-0.6098278967057674
-0.144745696640499
-0.6419170690222513
-0.1469910354297716
-0.675827782572919
-0.1489830951295396
-0.7116752649580875
-0.1506744686021627
-0.7495830078836588
-0.1520120270778257
-0.7896834319835974
-0.1529363083954886
-0.8321186098311116
-0.1533808428893683
-0.8770410525049468
-0.1532714106985737
-0.9246145655873786
-0.152525223663747
-0.975015181028358
-0.1510500242986958
-1.028432171923836
-0.1487430935837883
-1.085069157927409
-0.1454901585133691
-1.145145309751437
-0.1411641894353181
-1.208896662021464
-0.1356240762379446
-1.276577544633781
-1.34846214373787
-0.0001867260005827178
-0.03181928860681726
-0.000446513118402408
-0.03315871374376378
-0.0007189285350393573
-0.03467402573655763
-0.001009305396188816
-0.03620143341772034
-0.001322878980733688
-0.03784443285289406
-0.001651594949036937
-0.03956127913538961
-0.002006107894482576
-0.04135912201922601
-0.00237898062785885
-0.04325575267738849
-0.0027771992321299
-0.04522577531223142
-0.003199935780139061
-0.04728740806913549
-0.003649913229275834
-0.04943521372587534
-0.004128115567859213
-0.05168091661880817
-0.004636002604526982
-0.05402627501995216
-0.00517464573517687
-0.05648357274637984
-0.005745264445596129
-0.05905300924177058
-0.006349171423242048
-0.06174403376760217
-0.006987818470740701
-0.0645582275725745
-0.007662654697978033
-0.06749931478154655
-0.008375415646495646
-0.07057304454496194
-0.009127141459408763
-0.07378017105581916
-0.0099190648962862
-0.07713223292346752
-0.01075121888918137
-0.08063124090255128
-0.01162288191036789
-0.08429203774632131
-0.0125331037486643
-0.08812004268574131
-0.01347895336589676
-0.09213003650533136
-0.01445768464090008
-0.09633070395525509
-0.01546365999087145
-0.1007351732376392
-0.01649159171168645
-0.1053566307381034
-0.01753253594931345
-0.1102064898376793
-0.01857808676215694
-0.1153044096348394
-0.01961459375966083
-0.120659177806464
-0.02062572335646324
-0.1263000559762899
-0.02158113959658437
-0.132231525021441
-0.02243508215153015
-0.1384985607197591
-0.0231179603964169
-0.1451035020993963
-0.02355599660103736
-0.1521105326462762
-0.02371320689249169
-0.1595214617455633
-0.02367911329517627
-0.1673862492407159
-0.02377055664820604
-0.1756721524627453
-0.02459193049588598
-0.1843259425314935
-0.02695795502361242
-0.1932244737014177
-0.03162798750215302
-0.2022116334963259
-0.03892688149326901
-0.2111903335274124
-0.04846431796572065
-0.2201599539184115
-0.05919303675215729
-0.2292905351824659
-0.06981842467029502
-0.2388479591651394
-0.07930154655882032
-0.2491150292394614
-0.08714458231689223
-0.2602916893087331
-0.09337201352349439
-0.2724651422716723
-0.0983240183174985
-0.2856345485781013
-0.1024295897004502
-0.2997572567292476
-0.1060586036743491
-0.3147913415458072
-0.1094670822987241
-0.3307165459125599
-0.1128044553560737
-0.3475390061008715
-0.1161448733730284
-0.3652865521554512
-0.1195182202991647
-0.3840019571659002
-0.1229316758222084
-0.4037376941633741
-0.1263817384469105
-0.4245528152465682
-0.1298598331120654
-0.4465115657049098
-0.1333544938253276
-0.4696829674469926
-0.1368520126635966
-0.494140890970038
-0.140336489181782
-0.5199643333431089
-0.1437896647671977
-0.5472377902008124
-0.1471906756485734
-0.5760516797534527
-0.1505157636848936
-0.6065028086749076
-0.1537379532758282
-0.6386948794319747
-0.1568266939488709
-0.6727390418999486
-0.1597474657859489
-0.7087544931210173
-0.1624613440690459
-0.7468691296005627
-0.1649245190692563
-0.7872202569833862
-0.1670877664844047
-0.829955362415961
-0.1688958635823298
-0.8752329554070225
-0.1702869456180907
-0.9232234835516181
-0.1711917965550236
-0.9741103300914266
-0.1715330675301921
-1.028090900948668
-0.1712244158561702
-1.08537780960143
-0.1701695566386724
-1.146200168968934
-0.1682612183084192
-1.210805000351718
-0.1653799925054089
-1.279458770436789
-1.3524490684316
-0.0001884590405356464
-0.0315397532708255
-0.0004584960684324458
-0.032784023785387
-0.0007345377676009942
-0.03427855051612607
-0.001031905455095554
-0.03577667269719265
-0.001348030977336534
-0.03739018891890869
-0.001681765386959003
-0.03908087273671547
-0.002040396611061545
-0.0408437097051
-0.002419755407754192
-0.04270965248173263
-0.002825468137125557
-0.04464238272324463
-0.003257944767525015
-0.0466658413053003
-0.003719507801752151
-0.04877244324527182
-0.004211693106784107
-0.05097493714603713
-0.004735724086540536
-0.05327521725568201
-0.005293228188728449
-0.05568530200805696
-0.005885407330895344
-0.05820560657486286
-0.006514043953428814
-0.06084473710220877
-0.007181251792919727
-0.06360370289334152
-0.007888655496131698
-0.06648615842242361
-0.008638526459925444
-0.06949692301635317
-0.009431586366988967
-0.07263771462206883
-0.01026933845496231
-0.07591902778641846
-0.01115191430308589
-0.07934384357896689
-0.01207910295187662
-0.08292704902683884
-0.01304978479026418
-0.08667454622517577
-0.01406181725861361
-0.09060152397276175
-0.01511260352581455
-0.09471619825140906
-0.01619732592621336
-0.09903272689584458
-0.01731098765989932
-0.103562999469865
-0.01844576013000725
-0.1083197244902828
-0.01959397995385994
-0.1133206602766347
-0.02074366523550564
-0.1185762940329413
-0.02187970601238565
-0.1241133348757303
-0.022972806511493
-0.1299384812289149
-0.02397556979938638
-0.136094442271887
-0.02481249223468292
-0.1425873268873657
-0.02539784814453582
-0.1494818200324645