/*--------------------------------*- C++ -*----------------------------------*\
| =========                 |                                                 |
| \\      /  F ield         | OpenFOAM: The Open Source CFD Toolbox           |
|  \\    /   O peration     | Version:  v1912                                 |
|   \\  /    A nd           | Website:  www.openfoam.com                      |
|    \\/     M anipulation  |                                                 |
\*---------------------------------------------------------------------------*/
FoamFile
{
    version     2.0;
    format      ascii;
    class       volScalarField;
    location    "0.001";
    object      rho;
}
// * * * * * * * * * * * * * * * * * * * * * * * * * * * * * * * * * * * * * //

dimensions      [1 -3 0 0 0 0 0];


internalField   nonuniform List<scalar> 
16000
(
1.37316443416046
1.37374573364566
1.373639992888714
1.373743750927243
1.373955043435007
1.374144962288333
1.374430919699976
1.374705577674222
1.375029013946515
1.375366839346961
1.37573909483429
1.37614677875532
1.376602789229853
1.377114099963719
1.377689219655342
1.378328401148409
1.379029980585686
1.379783813623799
1.380579565524817
1.381402295702177
1.382241469951037
1.383087385170615
1.383937756215202
1.384793518691754
1.385660972574783
1.386547845246224
1.387462716431131
1.388412648951599
1.389401777201239
1.390430400741076
1.391494562338782
1.392587649089798
1.393703226224593
1.394837699554994
1.395987894379208
1.397135077918102
1.398207065695315
1.399032732771857
1.399301983439789
1.398585475390945
1.396436291728309
1.392575288943661
1.387075676430335
1.380437774132484
1.373464878104803
1.366999581069188
1.361660216474166
1.357705565472374
1.355064379981304
1.353467449245487
1.352590708144002
1.352152815568276
1.351953614826741
1.351871042773614
1.351839842072947
1.351829093365433
1.351825717516517
1.351824750558463
1.351824498060121
1.351824437895495
1.35182442482576
1.351824422232536
1.35182442176343
1.351824421685821
1.351824421674128
1.351824421672512
1.351824421672308
1.351824421672285
1.351824421672282
1.351824421672282
1.351824421672282
1.351824421672281
1.351824421672281
1.351824421672281
1.351824421672281
1.351824421672281
1.351824421672281
1.351824421672282
1.351824421672281
1.35182442167228
1.372643031306981
1.373236174050421
1.373076769374914
1.373160799410272
1.373377104908932
1.373565921022899
1.373866699180446
1.374150369477959
1.374491102955206
1.374843554165045
1.375232952667324
1.375657872114307
1.376133748451108
1.376667718338754
1.377270539628709
1.37794304137331
1.378684326368456
1.379483965253393
1.380330367644055
1.381207141621841
1.382101761423109
1.38300323310222
1.383908647484222
1.384819646660166
1.385744316790377
1.386693439830446
1.387679295700794
1.388713529679195
1.389805266240859
1.390960373497447
1.39218031507057
1.393464172760055
1.394810520608447
1.396221998601616
1.397702055076387
1.399240843708023
1.400775565783924
1.402136520662651
1.402991959454598
1.402854137254248
1.401172451043126
1.397543093422697
1.391937159288758
1.384828211016645
1.377098528084109
1.369746078873873
1.363554778199615
1.358898402272596
1.355750586648634
1.353828295967465
1.352764254436576
1.352229126814808
1.351984284324535
1.351882293365272
1.351843606959367
1.351830241435541
1.351826036274389
1.351824831087358
1.351824516546991
1.351824441752069
1.351824425555111
1.351824422357716
1.351824421782855
1.35182442168857
1.351824421674478
1.351824421672552
1.351824421672312
1.351824421672284
1.351824421672283
1.351824421672282
1.351824421672282
1.351824421672281
1.351824421672281
1.351824421672281
1.351824421672281
1.351824421672281
1.351824421672281
1.351824421672282
1.351824421672281
1.351824421672281
1.372343605334549
1.372932649547134
1.372703398484854
1.372760773700582
1.372976914363862
1.373161447736116
1.373473268222309
1.373763272304497
1.374118375198135
1.374482305558478
1.374885731147827
1.375324350518512
1.375816679483425
1.376369262927812
1.376995356595535
1.377696183822213
1.378470976410071
1.379309066443148
1.380196614869852
1.381115650768914
1.382050667544451
1.382988942255704
1.383926237010275
1.384864420745363
1.385812817603199
1.386784804999487
1.3877959526491
1.38886214999039
1.389997417398853
1.391213363476009
1.392517915945158
1.393916853850806
1.395416183872839
1.397026491011265
1.39876199738242
1.400626132622561
1.402573068719455
1.40444415369736
1.405900761402375
1.406406052719927
1.405309437445837
1.402067359217294
1.396519757787106
1.389083544214476
1.380697404158153
1.372510466813127
1.36548278593721
1.360121023192631
1.356456621939141
1.354200135377598
1.352942993891693
1.352307573638938
1.352015700543499
1.351893767752223
1.351847424960939
1.35183139796126
1.351826354829947
1.351824910807191
1.351824534651722
1.351824445479713
1.351824426250001
1.351824422474834
1.35182442180068
1.351824421691009
1.351824421674781
1.351824421672585
1.351824421672315
1.351824421672285
1.351824421672282
1.351824421672281
1.351824421672281
1.351824421672281
1.351824421672281
1.351824421672281
1.351824421672281
1.351824421672281
1.351824421672282
1.351824421672282
1.351824421672281
1.351824421672281
1.372329977575856
1.372891980701342
1.372572987721893
1.37259751780947
1.372809793162897
1.372989338032994
1.373310771101282
1.373607949837128
1.373977211638991
1.374352846356297
1.374770600467796
1.375223084160998
1.375732649155445
1.376304443634365
1.37695458993328
1.377684667501378
1.378493336665536
1.37936991038478
1.380297119050939
1.381255558685195
1.382225676234571
1.383192814797278
1.384150635462285
1.385100816539434
1.386053243956681
1.387023263906972
1.388028805373686
1.389089184485423
1.390222248037848
1.391444599326343
1.39276980265569
1.39421047453279
1.395780504656515
1.397500419484394
1.399398040230284
1.401495522854504
1.403770655565601
1.406086118301992
1.40810782884663
1.409262000593084
1.408803881309122
1.406045894367747
1.400680046442578
1.393041539017468
1.384103875505145
1.375157254506
1.36734069518429
1.361301807697088
1.357137770370057
1.354557529599699
1.353113784342855
1.352381955218771
1.352045214472839
1.35190442930478
1.351850927593366
1.351832443332416
1.35182663787272
1.351824980237495
1.351824550054303
1.351824448564295
1.351824426806121
1.35182442256485
1.351824421813689
1.351824421692682
1.35182442167497
1.351824421672603
1.351824421672316
1.351824421672285
1.351824421672282
1.351824421672281
1.351824421672281
1.351824421672282
1.351824421672282
1.351824421672281
1.351824421672281
1.351824421672281
1.351824421672281
1.351824421672282
1.351824421672281
1.351824421672281
1.372620371857711
1.373126852938971
1.372691067445288
1.372677014810354
1.372879486799176
1.373053141620356
1.373381840818078
1.373687173296209
1.374070188351711
1.374458457653009
1.374891819973179
1.375359789359028
1.375889340871551
1.37648349120743
1.377161399957118
1.377925097241921
1.378771774964082
1.379691074924529
1.380661145086258
1.381661476799259
1.382667602796284
1.383662970565822
1.384638698138707
1.385596019793097
1.386544929456451
1.387502061505849
1.388486844737549
1.389520808395357
1.390624214344797
1.391817084822589
1.39311703200038
1.394542137563552
1.396113327384112
1.397861279770186
1.399828920037135
1.402060525794729
1.404562977167018
1.407228324291172
1.409737407871242
1.411491752369968
1.411662636791521
1.409422515797149
1.40430970481937
1.396562692897701
1.387172059181743
1.377555698665406
1.369025382603159
1.362368316879004
1.357748271278225
1.354874375840321
1.353263129667156
1.352445937819868
1.352070122815839
1.351913230982978
1.351853746395659
1.351833259976444
1.35182685137316
1.351825030460524
1.351824560639656
1.351824450552545
1.351824427135862
1.351824422612478
1.351824421819502
1.351824421693249
1.351824421674998
1.351824421672601
1.351824421672316
1.351824421672285
1.351824421672282
1.351824421672281
1.351824421672281
1.351824421672282
1.351824421672282
1.351824421672281
1.351824421672281
1.351824421672281
1.351824421672281
1.351824421672283
1.351824421672281
1.351824421672282
1.373234616242041
1.373642150778402
1.373053579730167
1.372993893941585
1.373177393826025
1.373344228282563
1.373676884650941
1.373991028093766
1.374386825348767
1.374788292679983
1.375238069787983
1.375722938680939
1.376275107025503
1.376895178865527
1.377605072819189
1.378407503096243
1.379297230570369
1.380264401199821
1.381281713768498
1.382327726196786
1.383372662624633
1.384398278325887
1.385393127506094
1.386358037211286
1.387303039237693
1.388245573920587
1.38920594229108
1.390206788888374
1.391269457360751
1.392415612214933
1.393664971956009
1.39503891908109
1.396563426718238
1.39827783418341
1.400239678050027
1.402516433894149
1.405146949463832
1.408057767879755
1.410952163326128
1.413217458531491
1.41395255813362
1.412200297462034
1.407350957768243
1.399544333018825
1.38977889781359
1.379586914000943
1.370438978990968
1.363250128494702
1.358243166037585
1.355124978796657
1.353377810640775
1.352493378729384
1.352087841995643
1.351919189907652
1.351855543181895
1.351833742791752
1.351826965865882
1.351825054039539
1.351824564722202
1.351824451102508
1.351824427177424
1.35182442260784
1.351824421816749
1.35182442169253
1.351824421674859
1.351824421672579
1.351824421672312
1.351824421672284
1.351824421672281
1.351824421672281
1.351824421672281
1.351824421672282
1.351824421672282
1.351824421672281
1.351824421672281
1.351824421672282
1.351824421672281
1.351824421672282
1.351824421672282
1.351824421672282
1.374167788337461
1.374429168715928
1.373644428490532
1.3735371690924
1.373692049929595
1.373852073437389
1.374185372758742
1.37450844691792
1.374915457146348
1.375330031834228
1.375796204558559
1.376298957792379
1.37687560157312
1.377524843669878
1.378270478516772
1.379116102404714
1.380053256971676
1.381072092806877
1.382139767534725
1.383233467336042
1.384318580042431
1.385375341544061
1.386390280610019
1.387364052293187
1.388307002903354
1.389237164213611
1.390175352124325
1.391144558282607
1.392166228333729
1.393262172583552
1.394452424189096
1.395759345750412
1.397211415795119
1.398854087742118
1.400757461150364
1.403011196779361
1.405686317765528
1.408745512149623
1.41191773965934
1.414582433953807
1.415776031341343
1.414425659025744
1.409789488047978
1.401921103165566
1.391829650651416
1.381151695529013
1.371496688742095
1.363885336586795
1.358582946790779
1.355286999239915
1.353446544472801
1.352519164476089
1.352096288512734
1.351921543269452
1.351856067374047
1.351833818149369
1.351826962093902
1.351825046523653
1.351824561404289
1.351824450059591
1.351824426909185
1.351824422548835
1.351824421805376
1.351824421690591
1.351824421674563
1.351824421672538
1.351824421672307
1.351824421672284
1.351824421672281
1.351824421672281
1.351824421672281
1.351824421672281
1.351824421672282
1.351824421672282
1.351824421672281
1.351824421672282
1.351824421672281
1.351824421672282
1.351824421672282
1.351824421672281
1.375437488807562
1.375494592392204
1.374464219029115
1.374310551548513
1.37442169364936
1.374575871683543
1.374905274210739
1.375236536745799
1.3756521951823
1.376079032079286
1.376560810019655
1.377082444860316
1.377685005895124
1.378366679470433
1.379151712374862
1.380044280318652
1.381032368820475
1.382104701418664
1.383223753612456
1.384364070747313
1.385487592259216
1.386573061165102
1.38760616342896
1.388587779223484
1.389529017793149
1.390448538007301
1.391367477451394
1.392308744721549
1.393293360240318
1.394342290871451
1.395474607152407
1.396711699360849
1.398082165353967
1.399634778785886
1.401449529431404
1.403635988726856
1.406295419562522
1.409424818608619
1.412777025217272
1.415723765429895
1.417244783369082
1.416166488278519
1.411639482851984
1.403658021759188
1.393258001426051
1.382175225087859
1.372133234296235
1.364226583632245
1.358738111330509
1.355344383632762
1.353461633572235
1.352520035523505
1.352094245634544
1.35191989357449
1.351855207486375
1.351833460218163
1.351826835615268
1.351825007601855
1.351824550830378
1.351824447505371
1.351824426357661
1.351824422442124
1.351824421786816
1.35182442168769
1.351824421674154
1.351824421672486
1.351824421672301
1.351824421672283
1.351824421672281
1.351824421672281
1.351824421672281
1.351824421672282
1.351824421672282
1.351824421672282
1.351824421672281
1.351824421672281
1.35182442167228
1.351824421672281
1.35182442167228
1.35182442167228
1.37704954739769
1.376834002434207
1.375514238637684
1.375316960956574
1.375366969507183
1.375517175286881
1.375837940637603
1.376176734649278
1.376598786957202
1.377037776347928
1.377535086364019
1.378078004863274
1.378708877277157
1.379427142120925
1.380255829748808
1.381198498247848
1.382239828258938
1.383365053870147
1.384533527940045
1.385715689840445
1.386871940011213
1.387979537590576
1.389024885408397
1.390009704496964
1.390946234326284
1.391853911158285
1.392754103306569
1.393669397339406
1.394620225960312
1.395626244149293
1.396704849943636
1.397875143630791
1.399164031770498
1.400621344482146
1.402334622108568
1.404430871892277
1.40703838070372
1.410183501441278
1.413635820250543
1.416752611616035
1.418457232165551
1.417490118773169
1.412926175158336
1.404740324337221
1.39402348980217
1.382610023614124
1.37230828154802
1.364246463067718
1.358693267508172
1.355289957990592
1.353420377229947
1.352495253223201
1.352081640243839
1.351914310873985
1.351853024104685
1.35183270018035
1.351826598986704
1.351824941519905
1.351824534241778
1.351824443758138
1.351824425595039
1.35182442230227
1.351824421763683
1.351824421684239
1.35182442167369
1.35182442167243
1.351824421672295
1.351824421672282
1.351824421672281
1.351824421672281
1.351824421672281
1.351824421672282
1.351824421672282
1.351824421672281
1.351824421672281
1.351824421672281
1.351824421672281
1.351824421672281
1.351824421672281
1.351824421672281
1.378957792332405
1.378412099979735
1.376767466550681
1.376542240255664
1.376519081401366
1.376670936819508
1.376981743094304
1.377329695375643
1.377758233416286
1.378211520514749
1.378726562691007
1.379295597767817
1.379959442223425
1.380720124920892
1.38159784727309
1.382593657008449
1.383689332713692
1.384864517325392
1.386076862039072
1.387292192194123
1.388471330412979
1.38959066083854
1.390638518403415
1.391618257367943
1.392543475264008
1.393434441434221
1.394312748378537
1.395200527894461
1.396117628405142
1.397082298834924
1.398109991566612
1.399216803703275
1.400426918062616
1.401789964986202
1.403399786483265
1.405399031185526
1.407939236109998
1.411068390301369
1.4145604231132
1.417744674439031
1.419483145418874
1.418445221792848
1.413669117965835
1.40516170203959
1.394106035799111
1.382435556577804
1.372008667217705
1.363940229415966
1.358449214473877
1.355126657379089
1.353325657468063
1.352446826335915
1.352059609208668
1.351905343029233
1.35184974704306
1.351831622948486
1.351826280036202
1.351824856400842
1.351824513756239
1.35182443931174
1.35182442472444
1.351824422148556
1.351824421739204
1.351824421680726
1.351824421673236
1.351824421672377
1.351824421672289
1.351824421672282
1.351824421672282
1.351824421672281
1.351824421672281
1.351824421672282
1.351824421672281
1.351824421672281
1.351824421672281
1.351824421672281
1.351824421672281
1.351824421672281
1.351824421672281
1.351824421672281
1.381095396161343
1.38018020328452
1.3781922405592
1.377964775723643
1.377863217745206
1.378028272148699
1.378331603561593
1.378693115711417
1.379131890765605
1.379605141614363
1.380144172313439
1.380747746256611
1.381452727945775
1.382263887070809
1.383197036201495
1.384248820952044
1.385398123265419
1.386617815847407
1.387864658487849
1.389100568813377
1.390288359806085
1.391405305690746
1.392442440313233
1.393405422308679
1.394309411744972
1.395175321287506
1.396024918178492
1.396879827336062
1.397759382174984
1.398680503428718
1.399656624385649
1.400700566958923
1.401833487226392
1.403104802554176
1.404614934515764
1.406521538477116
1.40899535813818
1.412095564616222
1.415582873600234
1.418739258772892
1.420356964428878
1.419051623391565
1.413871844816697
1.404916742628796
1.393502232258333
1.381657464870924
1.371248889339703
1.363326317686438
1.358023061853515
1.354867331354936
1.353185646666927
1.352379263248655
1.352030339755861
1.351893930914235
1.351845736855555
1.351830351972749
1.351825916593676
1.351824762629936
1.351824491928661
1.351824434729394
1.351824423857052
1.351824422000619
1.351824421716478
1.351824421677586
1.351824421672846
1.351824421672334
1.351824421672285
1.351824421672281
1.351824421672281
1.35182442167228
1.351824421672282
1.351824421672281
1.351824421672281
1.351824421672281
1.351824421672281
1.351824421672281
1.351824421672281
1.351824421672281
1.351824421672281
1.351824421672282
1.383374386719596
1.38207779385061
1.379753011444584
1.379556437701734
1.37938144747415
1.379575197590289
1.379879282369726
1.380262540419397
1.380720346093909
1.381223643363762
1.381797867855376
1.382448235362435
1.383206024728293
1.384077560042321
1.385072685493818
1.386182156341795
1.387381264289773
1.388636465142704
1.389904226132333
1.391144466469181
1.39232302689216
1.393420031180855
1.394430207258696
1.395361920905006
1.396231899847192
1.397061420264546
1.397872268842873
1.398685585085082
1.399520258597496
1.400391972090299
1.401312075887088
1.402290071732655
1.403344453395928
1.40452572201986
1.405942791274209
1.407768834063146
1.410189132438236
1.413260411768481
1.416707574033018
1.419741395090094
1.421075906146924
1.419296386349573
1.413518416890728
1.403999417750619
1.392225487056018
1.380308022308168
1.370070836245707
1.362445197968001
1.357446675198945
1.354533301365493
1.353012750301465
1.352298922560477
1.351996726849353
1.351881250698649
1.351841420819076
1.351829026218901
1.351825549137519
1.351824670764095
1.351824471222178
1.351824430524494
1.351824423088263
1.351824421874207
1.351824421697802
1.351824421675111
1.351824421672553
1.351824421672303
1.351824421672283
1.351824421672282
1.351824421672281
1.35182442167228
1.351824421672282
1.351824421672281
1.351824421672281
1.351824421672281
1.351824421672281
1.35182442167228
1.351824421672281
1.351824421672281
1.351824421672281
1.351824421672282
1.385683369810939
1.38403453333958
1.381410058098923
1.381286109313581
1.381055569388101
1.381296407868032
1.381616557103569
1.382034722474484
1.382526376803274
1.383074943673753
1.383700729616907
1.384413724005994
1.385238562106331
1.38618082059614
1.387242902906762
1.388408924150983
1.389649747897679
1.390926829742978
1.392197036844009
1.393421080551588
1.39456920479246
1.395625973396878
1.396590499329142
1.397473907875064
1.398294456092542
1.399073598112912
1.399832976249831
1.400593289514409
1.401373024482514
1.402186612354103
1.403043100465249
1.403948741443674
1.404920377048714
1.406012211830875
1.407345088717473
1.409108761433995
1.411496739204817
1.414545604611803
1.417917029862559
1.42072488911586
1.421601254450041
1.419135162031176
1.412576113856079
1.402406643989698
1.390308621038782
1.37844625515737
1.368541433724783
1.361355729903201
1.356763071341838
1.35415158185802
1.352821818074629
1.352213026347228
1.351961897033189
1.351868510561222
1.351837216115057
1.351827774402854
1.351825213115099
1.351824589500199
1.351824453531559
1.351824427061925
1.351824422479694
1.351824421778336
1.351824421684291
1.351824421673414
1.351824421672363
1.351824421672283
1.351824421672281
1.351824421672281
1.351824421672281
1.351824421672281
1.351824421672281
1.35182442167228
1.351824421672281
1.351824421672281
1.351824421672281
1.351824421672281
1.35182442167228
1.351824421672281
1.351824421672281
1.351824421672282
1.387920617030376
1.385992599857916
1.383136018616451
1.383131632720525
1.38287662991727
1.383184647386529
1.383542979132732
1.384014662343519
1.384560931662427
1.38517492582622
1.385872704879934
1.386666125860524
1.387572349863538
1.388593402873067
1.389723194527751
1.390939082903367
1.392207435660575
1.393486962736559
1.394736144874191
1.395919239306815
1.39701239178536
1.398005893618492
1.39890366073255
1.399719591604292
1.400473127292777
1.401185754587887
1.401878928528951
1.402573034638076
1.403286124815826
1.404031123713164
1.404814332115912
1.405638924845772
1.406521885768474
1.407525148515359
1.408786043056665
1.410511429548483
1.412893502840185
1.415925804187827
1.419175307984202
1.421635269459571
1.421862497088157
1.418499039306651
1.411004545230873
1.400146809754277
1.387808524168721
1.376157410430906
1.366748296658944
1.360129479999664
1.356021369117796
1.353751309164055
1.352628017487186
1.352128565019389
1.351928714155086
1.351856754198539
1.351833460877859
1.351826693639891
1.351824933131735
1.35182452429244
1.351824439899424
1.351824424508815
1.351824422052365
1.351824421714633
1.351824421675872
1.351824421672435
1.351824421672263
1.351824421672275
1.351824421672281
1.351824421672281
1.351824421672281
1.351824421672281
1.351824421672281
1.351824421672281
1.351824421672281
1.35182442167228
1.35182442167228
1.351824421672281
1.35182442167228
1.351824421672281
1.351824421672281
1.35182442167228
1.39003386029137
1.387926630660281
1.384927637359654
1.38508520657721
1.384852289425814
1.385249260377885
1.385675108478658
1.386224042806554
1.386850283638843
1.387552982626102
1.388344291116076
1.389234525662525
1.390232579287253
1.391334349608591
1.392524957336383
1.393775617024039
1.3950492437235
1.396304484463049
1.397503471066186
1.398616546485955
1.399627111433273
1.40053200192394
1.401339920757232
1.402067321635531
1.40273455492329
1.403363095643159
1.403974310134194
1.404588400814357
1.405222747414382
1.405888162854254
1.406587501693546
1.407321347510944
1.408109742131105
1.409027778418135
1.410234263183567
1.411951499894328
1.414355662550244
1.41736841581675
1.42042849601594
1.422392163796185
1.421764200580031
1.417306705976575
1.408770386731882
1.397251877633625
1.384811508373754
1.373551155635134
1.36479366516674
1.35884382796487
1.35527122514088
1.353360117528538
1.352444837631831
1.352051346861777
1.351899386224597
1.351846719802696
1.351830370417465
1.351825837890712
1.351824720447873
1.351824476950057
1.351824430487343
1.351824422843845
1.351824421791655
1.351824421678785
1.3518244216716
1.351824421672004
1.351824421672228
1.351824421672274
1.35182442167228
1.351824421672281
1.351824421672281
1.351824421672281
1.351824421672281
1.351824421672281
1.351824421672281
1.351824421672281
1.351824421672281
1.351824421672281
1.351824421672281
1.351824421672281
1.351824421672281
1.35182442167228
1.391976330866671
1.389825773861049
1.386805299916296
1.38716746724236
1.387013455023437
1.387523786651593
1.388051587510005
1.388704891705414
1.389437983620911
1.390252153795746
1.391155104913647
1.392152392100126
1.393243899231493
1.394417732009271
1.395650957183855
1.396910182960165
1.398157145890982
1.399353453174072
1.40046733530535
1.401477300668807
1.402374974521673
1.403164019920485
1.403857598556328
1.404474346843569
1.405035303731689
1.405562035959198
1.406075985888011
1.406597158147013
1.407141662615014
1.407717121183672
1.408322184562484
1.408956060243415
1.409646259395935
1.410487729143292
1.411664871029195
1.41340942794834
1.415859897557809
1.418831593309863
1.421603311330871
1.422891820817432
1.421195180644664
1.415479542219716
1.405863285996687
1.393787607214125
1.381434292083643
1.370755477849693
1.362785510151088
1.3575739139632
1.354557202255118
1.353000884906193
1.352282510835331
1.351985349845941
1.351875240877787
1.351838777539028
1.351828025143668
1.351825217549405
1.351824573907347
1.351824446159502
1.351824424765593
1.35182442191156
1.351824421660332
1.351824421663214
1.351824421670138
1.351824421671917
1.35182442167223
1.351824421672275
1.351824421672281
1.351824421672281
1.351824421672281
1.351824421672282
1.351824421672281
1.351824421672281
1.351824421672281
1.351824421672281
1.35182442167228
1.351824421672281
1.351824421672282
1.351824421672282
1.351824421672282
1.351824421672281
1.393810144883869
1.391750463249394
1.388835581064957
1.389431298717552
1.389419496261465
1.390066880290343
1.390731569018749
1.391516466254939
1.392380692864195
1.393323879170511
1.394347881841011
1.395450952975229
1.396623623977251
1.397846055653742
1.399089238259644
1.400317834131708
1.401495634124609
1.402590400464339
1.403578955961077
1.404449463427221
1.405202192574454
1.405847322878901
1.406401871422153
1.406886211652381
1.407321945763736
1.407730886814348
1.408134641309236
1.408552638270731
1.408998540377416
1.409475302940848
1.409976902699472
1.410503706982184
1.411096984821377
1.411878792041464
1.41306054112334
1.414870778988445
1.41738066449949
1.420261256411848
1.42260741663713
1.423014758558912
1.420044818141555
1.412962644078922
1.402313576907276
1.389861109269032
1.377820942459062
1.367907461923205
1.360827548159467
1.356385065753989
1.353914261612572
1.352689574952685
1.352147178668168
1.351932487071516
1.351856702164684
1.351832951351881
1.351826388977319
1.351824808618246
1.351824483476018
1.351824428619668
1.351824421824315
1.351824421496363
1.351824421613898
1.351824421659867
1.351824421670203
1.351824421671991
1.351824421672247
1.351824421672278
1.351824421672281
1.351824421672281
1.351824421672281
1.351824421672281
1.351824421672282
1.351824421672281
1.351824421672281
1.351824421672282
1.351824421672281
1.351824421672281
1.351824421672282
1.351824421672282
1.351824421672282
1.351824421672281
1.395618490352149
1.393779739826194
1.391099468645256
1.391949261092657
1.392146073928034
1.392956506371056
1.393791101954866
1.394731625731057
1.395743619646532
1.396821930658975
1.397961101802584
1.399150866532928
1.400373190432265
1.401602044400157
1.402805692017126
1.403950642882199
1.405006597213446
1.405950550657946
1.406769927567038
1.407463247826513
1.40803914008737
1.408513461982054
1.408906242674338
1.409239107781101
1.409534112199807
1.40981340357793
1.410098524222826
1.41040732324012
1.41074921578901
1.411120815955639
1.411511894602396
1.411928516842989
1.412433759945022
1.413183320889176
1.414411913943848
1.416323644548967
1.418885337850804
1.42158687603128
1.423330878362107
1.422636607067416
1.418222222842462
1.409745229691232
1.398204731545998
1.385621161563685
1.374133842473546
1.365141453922077
1.359009603143626
1.35532700876097
1.353365147921619
1.352434450230524
1.352040886002371
1.351892792503282
1.351843444023715
1.351829004734105
1.351825347575111
1.351824567001981
1.35182443483284
1.351824420321245
1.351824420684761
1.351824421388658
1.351824421612868
1.351824421662197
1.351824421670843
1.351824421672106
1.351824421672263
1.351824421672279
1.351824421672281
1.351824421672281
1.351824421672281
1.351824421672281
1.351824421672281
1.351824421672281
1.351824421672281
1.351824421672281
1.351824421672281
1.351824421672281
1.351824421672282
1.351824421672281
1.351824421672281
1.351824421672282
1.397506436041303
1.396023813432679
1.393702661449013
1.394826015277424
1.395295296560346
1.39629442595784
1.39732329994014
1.398432455705878
1.399592543420786
1.400791777914944
1.40201685685731
1.40324970865976
1.404466312354882
1.405638205282821
1.406735577560552
1.407731336226416
1.408604967701822
1.409345216378042
1.409951186925857
1.410431476866231
1.410801979725017
1.411082896473998
1.411296204626354
1.411464207612483
1.411609246217336
1.411753609339857
1.411917980192462
1.412116867263022
1.412353062760619
1.412615574607083
1.412892195116068
1.413201626771013
1.413637931193038
1.414394052039729
1.415716650617532
1.417754849156158
1.420329674765326
1.422721010873432
1.423654266576579
1.421645875544628
1.415678247124182
1.405876674508529
1.393675664132171
1.381246964695615
1.370537005495092
1.362574497412188
1.357398596804878
1.354429923770647
1.352919513491682
1.352236455766645
1.351962190189935
1.351864870869396
1.351834638631152
1.351826553207707
1.351824751553767
1.351824442825534
1.351824413482571
1.351824417573491
1.351824420521252
1.351824421426094
1.351824421629235
1.351824421665982
1.351824421671507
1.351824421672201
1.351824421672275
1.351824421672281
1.351824421672282
1.351824421672282
1.351824421672282
1.351824421672281
1.351824421672281
1.351824421672281
1.351824421672282
1.351824421672281
1.35182442167228
1.351824421672281
1.351824421672281
1.351824421672281
1.35182442167228
1.35182442167228
1.399669227640364
1.398642439004072
1.396800589220888
1.398197402500336
1.398990759265639
1.400195461677388
1.401423861159867
1.40269245734057
1.403974014334305
1.405250058573582
1.406500849623129
1.407703660743343
1.408833229740226
1.409864209793147
1.41077427485739
1.411547347120323
1.412175831717169
1.412661525939332
1.413014922933661
1.413253214683075
1.413397617805132
1.413470858927035
1.413495587898103
1.413494135733296
1.413488772355446
1.413501305395083
1.413550041326685
1.413643594854223
1.413775684162012
1.413927643866832
1.41409004707595
1.414303553000398
1.414701815108951
1.415513141782012
1.416975388348064
1.419144197435879
1.421654579885332
1.42356415563158
1.423464632639877
1.419968133451425
1.412427978484294
1.401476140820582
1.388913594555788
1.376930856960443
1.367178739963576
1.360295128121254
1.356034057482565
1.353704272051364
1.352575421156329
1.352090831595143
1.351907280155182
1.351846510457074
1.351829238819688
1.351825175307038
1.35182445406369
1.351824391402437
1.351824407503214
1.351824417585669
1.351824420761754
1.351824421506511
1.351824421647252
1.351824421669167
1.351824421671972
1.351824421672258
1.351824421672281
1.351824421672281
1.351824421672281
1.351824421672281
1.351824421672281
1.351824421672281
1.351824421672281
1.351824421672281
1.351824421672281
1.351824421672281
1.351824421672281
1.351824421672281
1.35182442167228
1.351824421672281
1.351824421672281
1.35182442167228
1.402282567225632
1.401813875831956
1.400554971326959
1.4022187765974
1.403361491157488
1.404769953720233
1.406172280010002
1.407556041202065
1.408893948414863
1.410163513803444
1.411343022008343
1.412411214355457
1.413348536482025
1.414139448293734
1.414774565039825
1.415252323417234
1.41557939026228
1.415769946852734
1.415843792411442
1.415823925697479
1.415734147706305
1.415597547495643
1.415436113670197
1.41527150718509
1.415125385527327
1.41501791700532
1.414962727224966