/*--------------------------------*- C++ -*----------------------------------*\
| =========                 |                                                 |
| \\      /  F ield         | OpenFOAM: The Open Source CFD Toolbox           |
|  \\    /   O peration     | Version:  v1912                                 |
|   \\  /    A nd           | Website:  www.openfoam.com                      |
|    \\/     M anipulation  |                                                 |
\*---------------------------------------------------------------------------*/
FoamFile
{
    version     2.0;
    format      ascii;
    class       volScalarField;
    location    "0.001";
    object      T;
}
// * * * * * * * * * * * * * * * * * * * * * * * * * * * * * * * * * * * * * //

dimensions      [0 0 0 1 0 0 0];


internalField   nonuniform List<scalar> 
16000
(
258.3684024756428
258.3425590298638
258.3997138524254
258.4397829638235
258.4633868147378
258.4867344135399
258.5052912455125
258.5225127643259
258.5396349993695
258.5563945288822
258.5726933596254
258.5873279945359
258.5987170233463
258.605797985056
258.6074606353158
258.6040713689413
258.5964995609144
258.5870877550706
258.5784111925727
258.5737586745823
258.5757659024107
258.5867745278259
258.6078558325873
258.639358432795
258.6806453278036
258.7306298297611
258.7879305214372
258.8510366510673
258.9185433584603
258.9890446714008
259.0614473029897
259.1348905420602
259.2088440726624
259.2824225712119
259.3528938055728
259.4130066333949
259.4489363163899
259.4381980121547
259.3528498606555
259.1668846406579
258.8671471780518
258.4625269225751
257.9884107667706
257.4965176763292
257.0404962803407
256.6606169180167
256.375012014967
256.1805162007075
256.0601856274417
255.9923960501098
255.957554058394
255.94120049779
255.9341872400986
255.9314384826215
255.9304537672858
255.9301313378332
255.9300348649831
255.9300084825176
255.9300018916157
255.9300003863161
255.9300000723113
255.930000012388
255.9300000019457
255.9300000002793
255.9300000000368
255.9300000000045
255.9300000000005
255.9300000000001
255.93
255.9300000000001
255.9299999999999
255.93
255.93
255.93
255.9299999999999
255.93
255.93
255.93
255.9299999999999
255.93
258.3621348594271
258.3405233628727
258.4093225648933
258.4581546576997
258.4841554151664
258.5115595097838
258.5317383296769
258.5507107755346
258.5691415556385
258.5870910721461
258.6045032119156
258.6201695130472
258.6322099716249
258.6395140519594
258.6406068486978
258.6357883019026
258.6258765233721
258.6133579168801
258.6011821907469
258.5930619540326
258.5922112940654
258.6014643312396
258.6223254670946
258.6554100697657
258.7002416317623
258.7557955376281
258.8207471812902
258.8936537238254
258.973232159075
259.0582244888102
259.1477378393668
259.241085505243
259.3380299073901
259.4379435903575
259.5385573502359
259.6329315645132
259.7064717081819
259.7346722143012
259.6850303985594
259.5248691511846
259.2336320965272
258.8155564270323
258.304785735326
257.7585457100255
257.2402597896023
256.8004266238158
256.4647404961042
256.2333016246317
256.0886569121039
256.0064765653206
255.9639396443853
255.9438540963351
255.9351970231571
255.9317899215799
255.9305655502585
255.9301637949165
255.9300434600568
255.9300105566295
255.9300023471149
255.9300004773183
255.9300000888143
255.9300000151057
255.9300000023506
255.9300000003343
255.9300000000436
255.9300000000052
255.9300000000006
255.9300000000001
255.93
255.9300000000001
255.93
255.93
255.93
255.93
255.93
255.93
255.93
255.93
255.9299999999999
255.9300000000001
258.3467221795513
258.3331488877564
258.416178916534
258.4756168063589
258.5047607089902
258.5368374229369
258.5590332157595
258.5800719813069
258.5999876595444
258.6192527520929
258.6377772604512
258.6544248352201
258.6668715164906
258.6740588908031
258.674049621437
258.6670466889529
258.6538649161689
258.6370462529292
258.6200001690855
258.606791095279
258.6012764634831
258.6067443466851
258.6251418325847
258.6573086673311
258.7029036196288
258.7609249060708
258.8301036865753
258.9090671533987
258.9967135109471
259.0920078818797
259.1943759404608
259.3034794629731
259.4195353375903
259.5424853303193
259.6707901012148
259.7981784334917
259.9101123284572
259.9805352831765
259.9728675695603
259.8474973999745
259.5755272572848
259.1542651592123
258.6156139131775
258.0210355746222
257.4433910336148
256.9441682887254
256.5576867031218
256.288236497834
256.1183528379638
256.0211682316474
255.9705943404325
255.9466130911584
255.9362431132861
255.9321524166273
255.9306802256617
255.9301968841622
255.9300521583606
255.9300126378139
255.9300027997733
255.9300005667256
255.9300001048272
255.9300000177029
255.9300000027316
255.9300000003846
255.9300000000496
255.9300000000058
255.9300000000007
255.9300000000001
255.93
255.93
255.93
255.93
255.93
255.93
255.93
255.93
255.93
255.9299999999999
255.9299999999999
255.9300000000001
258.3267220387707
258.3264868671105
258.4273759044071
258.4997184203938
258.5329487432714
258.5705490403653
258.5953886892223
258.6189621395968
258.6407545870036
258.6617091442379
258.681586499929
258.6994413652498
258.7123102928288
258.719318223225
258.7179792547259
258.708366595466
258.6913717338444
258.6694874916449
258.646715347864
258.6273684680676
258.6160249978183
258.6163456927383
258.6307161251608
258.6601187262337
258.7042860302016
258.7621621752448
258.8324783072759
258.913887182134
259.0054536008393
259.106378691101
259.2164665518953
259.3358397478989
259.4653748177809
259.6058659814446
259.7569181509505
259.9134226806106
260.0615384238964
260.1743002783044
260.2115067340746
260.126655542237
259.8818600267123
259.4662858270469
258.9081763116212
258.2720992443814
257.639867684857
257.0841705724215
256.6485103931047
256.3419243698678
256.1473039417326
256.0354254377328
255.977010993312
255.9492522861711
255.9372343863869
255.932492151826
255.9307863473128
255.9302270603847
255.9300599583167
255.9300144678665
255.9300031888091
255.9300006415177
255.9300001177953
255.9300000197252
255.9300000030138
255.9300000004198
255.9300000000535
255.9300000000062
255.9300000000007
255.9300000000001
255.93
255.93
255.9299999999999
255.93
255.93
255.93
255.9299999999999
255.93
255.93
255.93
255.93
255.9300000000001
258.2964699181368
258.3167694339747
258.4404750748002
258.5284723064707
258.5672812908808
258.6116048033533
258.6401769216093
258.6671166916812
258.6916148127314
258.715080748336
258.7369870542664
258.7567225682761
258.770463655982
258.7776461948354
258.7751921765844
258.7629975797871
258.7421695576681
258.715055801943
258.6864137537978
258.660706068279
258.6433078492693
258.6381563002236
258.6480444588475
258.673996131828
258.7157215041608
258.7720165750347
258.8415142531292
258.9228204449796
259.0150868433193
259.1177136019889
259.2308545129616
259.3551449750979
259.4922180569365
259.6439494471071
259.811403088714
259.9911029107805
260.1704673374982
260.3222832874998
260.4033241848189
260.3605414583494
260.1469507492017
259.7429533211061
259.1721712129279
258.5012869577554
257.8203796545051
257.2130328203114
256.7319244710238
256.3909504219523
256.1735103755098
256.0481836133314
255.982673450592
255.951543652161
255.9380790372474
255.9327754644429
255.930872675102
255.9302509106058
255.9300659177818
255.9300158107584
255.9300034605742
255.930000690655
255.9300001256634
255.9300000208268
255.930000003145
255.9300000004325
255.9300000000542
255.9300000000062
255.9300000000007
255.9300000000001
255.93
255.93
255.93
255.9300000000001
255.93
255.9299999999999
255.93
255.93
255.93
255.93
255.93
255.9300000000002
258.2476525773077
258.2977651984378
258.450578791258
258.5571423917243
258.6034487578428
258.6558978011817
258.6895409467444
258.7209254533764
258.7492360780275
258.7763269234806
258.8012341445324
258.8237907356057
258.8391454094408
258.8471007473582
258.8440309704474
258.829602860691
258.8053052093488
258.773301832131
258.7392400723724
258.7076918721896
258.6848505779724
258.6748424173797
258.6807959237249
258.7036703387151
258.7430439393714
258.7974767683237
258.8654066440218
258.9453140658308
259.0363389225231
259.1380015510528
259.2507148248707
259.3755858722314
259.5149960517678
259.6719992046773
259.8493039561723
260.0454007608812
260.2494124416846
260.434450148139
260.5548959108509
260.5517110059262
260.3691647409816
259.9789252379792
259.3996800543215
258.6996294048026
257.9763821305586
257.3236750651459
256.802739820518
256.4319190905285
256.1949738297462
256.0583812813693
255.9870707878747
255.9532640042768
255.9386885307232
255.9329704788819
255.930928799202
255.9302653557086
255.9300692129602
255.9300164675471
255.9300035718076
255.9300007056933
255.9300001269586
255.9300000207796
255.9300000030943
255.9300000004188
255.9300000000515
255.9300000000057
255.9300000000006
255.9300000000001
255.93
255.93
255.93
255.93
255.93
255.9299999999999
255.93
255.93
255.93
255.9299999999999
255.93
255.9300000000001
258.1704033539201
258.2617915919086
258.4512376249546
258.5793054487091
258.6354205151981
258.6976323207657
258.7378880649331
258.7751139886681
258.8086346005888
258.8407532786167
258.869940661157
258.8964705677788
258.914442905853
258.9239410419975
258.9209395507442
258.9048566133963
258.8776954327695
258.8415273987309
258.8029089444489
258.7666023265306
258.7395294625187
258.7259621629078
258.729227261933
258.7501273144921
258.7880020621976
258.8411141792803
258.9076416296792
258.9858863646434
259.0748923083671
259.1742124239806
259.2843950698212
259.4069106877487
259.5447850393685
259.7022221792293
259.8836159138884
260.0895843157217
260.3112060716905
260.5222923611328
260.6753347531211
260.7059186621439
260.5502694671401
260.1720113272004
259.5853685998806
258.8600563468191
258.1006116880238
257.4098355996651
256.8562808281821
256.4617561942235
256.2098957435967
256.0650755914389
255.9897580817992
255.9542237557289
255.9389899636314
255.9330518950928
255.9309468123656
255.9302681766819
255.9300692872491
255.9300163142343
255.9300034982409
255.9300006825325
255.9300001211055
255.930000019523
255.9300000028585
255.9300000003796
255.9300000000457
255.930000000005
255.9300000000005
255.93
255.93
255.93
255.93
255.93
255.93
255.9299999999999
255.93
255.93
255.93
255.93
255.93
255.93
258.057538723074
258.2038045609872
258.4381686692918
258.5902545172423
258.6589197336926
258.7325607630129
258.7811497188995
258.8258365395794
258.8661362292967
258.9047911962045
258.9396606618593
258.9712729148374
258.9928872144525
259.0046307957098
259.0023200546843
258.9852083655513
258.955855923922
258.9165072284997
258.8744768291019
258.8349208627574
258.8052518417155
258.7898919919535
258.7921446723407
258.8125769652368
258.8501981964467
258.9029465654167
258.9687224411781
259.0456427115409
259.1326104867514
259.2291475362583
259.3358207849727
259.4543304606058
259.5881971259556
259.7426616704688
259.9237272197755
260.1341265156302
260.36690962175
260.5966709139581
260.774226759898
260.8303028950864
260.6940136643371
260.3222456385265
259.7260678892138
258.9774111951595
258.1873860021348
257.4664916478987
256.8887926846871
256.4780294957
256.2168920313113
256.0675684213205
255.9904222219066
255.9542977918425
255.9389388556895
255.9330057820332
255.9309229218098
255.9302585010942
255.9300659824052
255.9300153332898
255.9300032412937
255.9300006226638
255.9300001086253
255.9300000171893
255.9300000024658
255.9300000003201
255.9300000000375
255.930000000004
255.9300000000003
255.9299999999999
255.9299999999999
255.93
255.93
255.93
255.93
255.9299999999999
255.9299999999999
255.93
255.9300000000001
255.93
255.93
255.9299999999999
257.9094140010492
258.1249105473078
258.4122476993485
258.5897497112897
258.6734899812758
258.759904017466
258.8184624201051
258.8721739138502
258.9207669511759
258.9673054348423
259.0091321761709
259.0466569370467
259.0727086862931
259.0871467980574
259.0859087137268
259.0683149823197
259.0374226284673
258.996044624768
258.9519755250672
258.9109813033915
258.8806217771449
258.8654612315688
258.8685217191385
258.8900541562788
258.9286842476197
258.982034194781
259.0477582332331
259.123830947945
259.2090222190458
259.3027953467145
259.4056531512947
259.5194064884935
259.6479251710751
259.7973471943409
259.9751454445324
260.1860085458979
260.4247287182507
260.6664121122378
260.8600344203496
260.9317674951378
260.8046915765919
260.4308249994717
259.8201969299053
259.0483430230136
258.2328358925205
257.4902520948429
256.8978390980707
256.4792625421314
256.2151998664619
256.0655246451493
255.9889406130548
255.953451213297
255.9385293687723
255.9328331417404
255.9308585477434
255.930237099767
255.9300596075896
255.930013627036
255.9300028300545
255.9300005333203
255.9300000911079
255.9300000140894
255.9300000019701
255.9300000002486
255.9300000000282
255.9300000000028
255.9300000000003
255.93
255.93
255.93
255.93
255.93
255.93
255.9299999999999
255.93
255.93
255.93
255.93
255.93
255.93
257.7326185940914
258.0307635716271
258.3773898122754
258.5803405237257
258.681273724533
258.781322995198
258.8512785860241
258.9153518587675
258.9735597826518
259.0290031351915
259.0787164032259
259.1225513743342
259.1533939000814
259.1705949843653
259.1704888576865
259.1527998081441
259.1209980752862
259.0788501551472
259.0343552147426
258.9939635504812
258.9650334927353
258.9521331454976
258.9577937760776
258.981855196267
259.022547763149
259.0772313635762
259.1433832061369
259.2189182543194
259.3025241835313
259.393615080365
259.4925913240985
259.6012965384687
259.723853947411
259.8671901397374
260.0401004747923
260.2489630734864
260.489842367622
260.7377055810535
260.9391150492405
261.0157522354313
260.8858725564734
260.4990304205311
259.8670499630593
259.071007268415
258.2349356809638
257.4795643009108
256.8825438703945
256.465128158491
256.2048007432226
256.0590368274263
255.9854102246503
255.9517502574473
255.9377975822743
255.9325506200252
255.9307603673339
255.9302063329339
255.930050903663
255.9300114029132
255.9300023164872
255.930000426166
255.9300000709023
255.9300000106475
255.9300000014404
255.9300000001749
255.930000000019
255.9300000000018
255.9300000000001
255.93
255.93
255.9300000000001
255.93
255.93
255.93
255.93
255.93
255.93
255.93
255.93
255.93
255.93
257.5406745243997
257.9319419463644
258.3411040090189
258.5679116971982
258.6874983557292
258.8013946819028
258.8837620542268
258.9590975366121
259.0277941440479
259.0926209242859
259.1505156551567
259.2004511823491
259.2357966015162
259.2553480594194
259.256107596832
259.2385336775325
259.2065032370526
259.1649224575611
259.1218008887652
259.0841461118302
259.0588514850295
259.0501807651582
259.0600302108173
259.0877448652381
259.1311800999484
259.1875340723633
259.2542152009782
259.3291806011492
259.411113081227
259.4994088674731
259.5943667807886
259.6978373199229
259.8141776248067
259.9510654145271
260.1185008007647
260.3242002784726
260.564791808929
260.8140792468042
261.015263877296
261.0854340397167
260.9394465739056
260.5273422373094
259.8661592223363
259.044736172538
258.1934216081556
257.434762555512
256.843666383372
256.4364991276566
256.1864389417572
256.0486239018538
255.980139572743
255.9493548295791
255.9368166996085
255.9321880294629
255.9306392307309
255.9301697389399
255.9300409061382
255.930008933101
255.9300017648613
255.9300003148327
255.9300000506037
255.930000007307
255.9300000009444
255.9300000001087
255.930000000011
255.9300000000009
255.9300000000001
255.93
255.9299999999999
255.93
255.93
255.93
255.93
255.93
255.93
255.93
255.93
255.93
255.9299999999999
255.9299999999999
257.3537922672452
257.8432451532197
258.3137377626506
258.560975709189
258.6995973061671
258.826874025009
258.9220120851227
259.0088712401876
259.088215216318
259.1621732614278
259.227696719737
259.2828010413605
259.3216347614141
259.3426263005377
259.3437180243793
259.3263426780775
259.2948899390439
259.2553157142759
259.2155089577943
259.1826887395117
259.1630837732157
259.1603374753637
259.1755719436567
259.2076111499931
259.2540047217748
259.3119085199722
259.3787963474118
259.4527737591528
259.5326002141905
259.6176911875593
259.7082720239869
259.8062278621293
259.9162178039008
260.0467218973359
260.2088628427023
260.4112507985301
260.6501177676253
260.8967269374899
261.0896952552758
261.1414298082873
260.965203956401
260.5150702340379
259.8170829541227
258.9699858660986
258.1098208496467
257.3580937222392
256.7835819836176
256.3953896123808
256.1615512445969
256.0351716512257
255.9736079350229
255.9464951837129
255.9356855165686
255.9317833315811
255.9305082297068
255.9301313734376
255.9300307437171
255.9300064996827
255.9300012384278
255.9300002120272
255.9300000324947
255.9300000044334
255.9300000005341
255.930000000056
255.930000000005
255.9300000000003
255.9300000000001
255.93
255.9300000000001
255.93
255.9299999999999
255.93
255.9300000000001
255.93
255.93
255.93
255.93
255.93
255.93
255.93
257.1951015426237
257.7808353314555
258.3065639994058
258.5692509985257
258.7260253161631
258.8654708535416
258.9729872684218
259.0708800442013
259.1601694104513
259.2421664063535
259.3138532796876
259.3724762903367
259.4131538423466
259.4343252379808
259.4351191681553
259.4180390653938
259.388107696717
259.3520498135613
259.3175192775282
259.2914684160537
259.2792213391402
259.2835621316835
259.304781645728
259.3412295307715
259.3902522843215
259.4490968436175
259.5154442696963
259.5876454375249
259.6646041052377
259.7457825120408
259.8313752803584
259.9233834926316
260.0269254153044
260.1514176201425
260.3090302241152
260.5086811210393
260.7449614434747
260.9849065212458
261.1612187069503
261.1818219272355
260.9608353657352
260.4604235658121
259.719549483917
258.8484757747484
257.9874948971745
257.2536307267388
256.7061020310875
256.3447507292826
256.1320934038873
256.0198119690765
255.9663946375193
255.9434354930365
255.9345118399633
255.9313759692959
255.9303803101429
255.9300950469969
255.9300214210664
255.9300043394766
255.9300007869439
255.9300001270294
255.9300000181014
255.9300000022455
255.9300000002362
255.9300000000198
255.930000000001
255.93
255.93
255.93
255.93
255.93
255.9300000000001
255.93
255.9300000000001
255.93
255.93
255.93
255.9299999999999
255.93
255.93
255.93
257.0865814375388
257.7597125426967
258.3298695724219
258.6021297209275
258.7748714415345
258.9245768434499
259.0432771749483
259.1509167940105
259.2485711085164
259.3366888782209
259.4122865617214
259.4722382599717
259.5127640520975
259.5327769495929
259.532758443202
259.5162694336271
259.48896643082
259.4579355487613
259.4304090692896
259.4126220994592
259.4087814931882
259.4206535878636
259.4477237293997
259.4879602451738
259.538683949122
259.5973810633316
259.6620649063307
259.7314000843713
259.8044697973189
259.8807898414436
259.9605792156198
260.046095090809
260.1431588566201
260.2623153841793
260.41664726954
260.6145700447464
260.8474625085305
261.0762168879597
261.2264350389424
261.2023782049686
260.9222695550167
260.3609625409222
259.5739009249633
258.6834613190804
257.831648471201
257.1270507516311
256.6161389004939
256.2881438529636
256.1002915989376
256.0037648635874
255.9590923533964
255.9404324066288
255.933394936758
255.9310002716682
255.9302660712866
255.9300636734196
255.9300136481348
255.930002604678
255.9300004387642
255.930000064327
255.9300000079974
255.9300000007943
255.9300000000515
255.9299999999992
255.929999999999
255.9299999999998
255.93
255.93
255.93
255.93
255.93
255.93
255.9300000000001
255.93
255.9299999999999
255.93
255.9299999999999
255.93
255.93
255.9299999999999
257.0462215927242
257.7919381244374
258.3915675400297
258.6671911858085
258.8526006540609
259.0101984983223
259.1381702542088
259.2535602025898
259.3572535030359
259.4489260957862
259.5256973026284
259.5845626428394
259.6229609500181
259.6407062333009
259.6396699408217
259.6243512217863
259.6008760311687
259.576246075957
259.5569771731041
259.5482203030654
259.5529361180814
259.5718443432012
259.6037599012366
259.6464426395375
259.6973751394115
259.7544261452304
259.816036357796
259.881209523803
259.9491992300677
260.0195625969178
260.0926199618306
260.1710974712157
260.2618428026021
260.3767225298312
260.5294358336934
260.7267581897481
260.9549366506422
261.1667346346035
261.2799567030323
261.1969930102274
260.8443766108721
260.2144322587782
259.3818029731559
258.4800969906382
257.6492803786552
256.9852914731421
256.5192619734982
256.2293497847795
256.0683687661823
255.9881772898828
255.9522248582314
255.9376984813041
255.9324113463406
255.9306806043564
255.930172319257
255.9300388982535
255.9300077601049
255.9300013492919
255.9300001993941
255.9300000236851
255.9300000018902
255.92999999999
255.9299999999601
255.9299999999905
255.9299999999984
255.9299999999998
255.9299999999998
255.93
255.9299999999999
255.93
255.9299999999999
255.9299999999999
255.93
255.93
255.93
255.93
255.9299999999999
255.93
255.93
255.9299999999999
257.083365407084
257.8831884366124
258.4955186128997
258.7693054315412
258.9635191266806
259.1265108332185
259.2613654099301
259.3819835007047
259.4888854080601
259.5811856973747
259.6562856504759
259.7117852391787
259.7464545523371
259.7612894660475
259.7594305353236
259.7460789673958
259.7275023591343
259.7101790280923
259.6996046647051
259.6996251769382
259.711951556146
259.7363715686287
259.7712520383712
259.8143689029996
259.8635537570285
259.9171718262786
259.9741349407622
260.0337563389122
260.09540492753
260.1586597891185
260.2240669081293
260.2951231379125
260.3800788649045
260.4922330514223
260.6453146118127
260.8428991117959
261.0638851318006
261.2511137873872
261.3147822576017
261.1584635029233
260.7220709810011
260.0199022574547
259.147064365496
258.2457125061778
257.4489557263129
256.8360463388202
256.4211635724691
256.1719536943867
256.0382817407441
255.9739848263985
255.9461849008886
255.9353778169269
255.9316067595928
255.9304291669116
255.9301016283265
255.9300210636896
255.9300037362883
255.9300005411995
255.9300000559059
255.9300000013924
255.9299999989138
255.9299999996607
255.9299999999326
255.9299999999894
255.9299999999985
255.9299999999998
255.93
255.93
255.93
255.9300000000001
255.93
255.93
255.9300000000001
255.93
255.9299999999999
255.9300000000001
255.93
255.93
255.93
255.93
257.2004770926334
258.0357290549289
258.6434693324573
258.911453279345
259.1103223145392
259.2762136845054
259.4152324856915
259.5382122733432
259.6452565989434
259.7352166533224
259.806040458109
259.8563205293911
259.8862270475066
259.8980018985093
259.8957832882915
259.8851250325682
259.8720273090308
259.8620715665843
259.8595090201479
259.8668372752549
259.8846583792871
259.9120794135233
259.9472998674826
259.9883467123631
260.033556916631
260.0818530363982
260.1325948768163
260.1853138787854
260.2394000371691
260.2944567316182
260.3514591496729
260.4150717301298
260.4953254312029
260.6068546064224
260.7624034056742
260.960325634955
261.1698208759155
261.3225889618379
261.3227059874737
261.0793703645863
260.5514533131825
259.7787626621831
258.8761149634739
257.9896602298887
257.2402224424682
256.6870584739724
256.3270688088705
256.1189581614522
256.0115154496642
255.9618185544243
255.9412000444221
255.9335371352949
255.9309950524487
255.930246624305
255.9300528790254
255.9300094682024
255.9300012966631
255.9300000920165
255.9299999848463
255.929999992082
255.9299999979954
255.9299999996179
255.9299999999399
255.9299999999918
255.929999999999
255.9299999999998
255.9299999999999
255.93
255.93
255.93
255.93
255.93
255.9300000000001
255.93
255.9299999999999
255.93
255.93
255.93
255.93
255.93
257.393887386843
258.2473737809534
258.8344118601114
259.0943291268665
259.2940679156791
259.4605772172332
259.6010039400959
259.7234349278997
259.8276468922256
259.9125798379403
259.9770151429535
260.0207806303891
260.0454130713303
260.0542461158006
260.0520332273603
260.0442661237353
260.0362847130127
260.0325312858239
260.0359549699757
260.0478486819757
260.0679856005561
260.0951232081489
260.1275859891965
260.1638535499281
260.2028615668995
260.244077402404
260.2872063182542
260.3318466855984
260.3773025049132
260.4232642685801
260.4714541030157
260.528181361817
260.6055399368227
260.7190491813855
260.8789193887063
261.0758604166225
261.2671977075051
261.3733180694002
261.2952616008034
260.9535201760796
260.3313356861341
259.4958117028889
258.5783442800094
257.7229756808935
257.0329261276175
256.545445742324
256.2412625984602
256.072529117388
255.988979464557
255.9519804395802
255.9373356206451
255.9321733520119
255.9305638114933
255.9301249696942
255.9300224596998
255.9300027934987
255.9300000329541
255.9299998921983
255.9299999604823
255.9299999904326
255.9299999981638
255.9299999997052
255.9299999999595
255.9299999999952
255.9299999999995
255.9299999999999
255.93
255.93
255.93
255.9299999999999
255.93
255.93
255.93
255.93
255.93
255.9300000000001
255.93
255.93
255.93
255.9299999999999
257.6540851651383
258.5126415366659
259.0660355341694
259.3176499879795
259.5154163771011
259.6806225029814
259.8198449643751
259.9389324318241
260.0375664815729
260.1151443133731
260.1715175401719
260.2078242849656
260.2267991018586
260.2325519097423
260.2300254336503
260.2242665107686
260.2196888582989
260.2195352406886
260.2255883421363
260.2382354806526
260.2567845210004
260.2799841574305
260.3065300376188
260.3354808239648
260.3663776382587
260.3991302987905
260.4336059398158
260.4692783904719
260.5052863289108
260.5415828162753
260.5810883182514
260.6322562771714
260.7092993866327
260.8276729898811
260.9929453283195
261.1855737280266
261.3494541088197
261.3949879278616
261.2249229673955
260.7774051515242
260.0643906780188
259.1796341602886
258.2656403199566
257.4574083397594
256.8362022174456
256.4169692685104
256.166697877883
256.0338544213766
255.9709913990499
255.9444681856616
255.9345218797576
255.9312312295457
255.9302832999717
255.9300513254005
255.9300056481581
255.929999540663
255.9299995288167
255.9299998399966
255.9299999608847
255.9299999922757
255.9299999987212
255.9299999998202
255.9299999999784
255.9299999999979
255.9299999999999
255.93
255.93
255.93
255.9300000000001
255.93
255.93
255.93
255.9300000000001
255.93
255.9299999999999
255.93
255.9299999999999
255.9300000000001
255.9299999999999
255.9299999999999
257.9726627043581
258.8275934210199
259.338144799477
259.582484835935
259.7762320810554
259.93831516798
260.0737031849259
260.1866155266188
260.2769685016247
260.344943465447
260.3915929078602
260.419283691718
260.4316707450197
260.4332645933168
260.4288229018459
260.4226966963171
260.4183013383455
260.4178163123655
260.4221500631804
260.4311613583884
260.4440532090341
260.4598404482182
260.4777398804936
260.4974136453898
260.5189134756353
260.5423980833147
260.567647816316
260.5938177453003
260.6198914339219
260.6464146146378
260.6780721402502
260.7258768072431
260.8058276625425
260.9317777076871
261.1021036671182
261.2845967250282
261.4093092669386
261.3797536722005
261.1064940021724
260.5514998174302
259.7577622707657
258.8422593603134
257.9513191149248
257.2041835518226
256.6575253075815
256.3055300948168
256.1048491011447
256.0031759945078
255.957364117187
255.9390497180866
255.932599772505
255.9306267655532
255.9301165160951
255.930011676983
255.9299978155094
255.9299983672497
255.9299994414367
255.9299998583199
255.9299999708234
255.9299999949821
255.9299999992752
255.9299999999129
255.9299999999916
255.9299999999994
255.9299999999999
255.93
255.9299999999999
255.93
255.93
255.93
255.93
255.9299999999999
255.9299999999999
255.9299999999999
255.93
255.9299999999999
255.9299999999999
255.9299999999999
255.9299999999999
255.9299999999999
258.3424924192861
259.1893578187064
259.6526920301803
259.8911012499632
260.0795714531592
260.2364379531513
260.3650104544328
260.468514978054
260.5474765115973
260.6031104847584
260.6376929145219
260.6546428019907
260.6582365469914
260.6530717969025
260.643495682941
260.6331044049858
260.6244360847184
260.6188836723996
260.6168338725831
260.6179664231914
260.6216476805923
260.6273116894147
260.6347257074917
260.6440693303989
260.6557139004009
260.6697974713247
260.6857364468884
260.702232378826
260.718272260158
260.735496365211
260.7609659398303
260.8084329548751
260.8948310636638
261.0303093725507
261.2033480691917
261.3673558295628
261.4397140104153
261.3218459968282
260.9388746633581
260.2814734010404
259.4232282714791
258.498328269781
257.6488395486492
256.9728806215079
256.5020870809743
256.2130176298521
256.0558213693711
255.9799757330825
255.9475579814911
255.9353583809408
255.9313707605525
255.9302691077644
255.9300275103127
255.9299935891368
255.9299951836078
255.9299982640638
255.9299995343133
255.9299998988146
255.9299999817659
255.9299999972793
255.9299999996725
255.9299999999706
255.9299999999986
255.9300000000001
255.93
255.9299999999999
255.9299999999999
255.93
255.9299999999999
255.93
255.9299999999999
255.9299999999999
255.93
255.9299999999999
255.9299999999999
255.9299999999999
255.9299999999999
255.93
255.93
255.93
258.7626939454685
259.5999241785995
260.015244703908
260.2482960859996
260.4298937394697
260.5784692560684
260.6961515962806
260.785810762738
260.8489649660709
260.8880783048812
260.9066539901711
260.9090128685516
260.8998436388376
260.883662447504
260.8643525655149
260.8448506268509
260.8270375510425
260.8118115445496
260.7993244667766
260.7893000912779
260.7813900464997
260.7754642686467
260.7717575616596
260.7707910854951
260.7729914249542
260.7781677987073
260.7851269239518
260.7921058400944
260.7984433957764
260.8075094445199
260.8292678977566
260.880000328445
260.9761519897182
261.121695189826
261.2928077467845
261.4280175763956
261.4349630590142
261.2190012742951
260.7261140112789
259.9782354311482
259.0761109622389
258.1633302333462
257.3701423967529
256.7703968375528
256.3724567829087
256.1394210978076
256.018624624075
255.9632224026282
255.9408476470778
255.9329837874067
255.930637751581
255.9300763602999
255.929986530066
255.9299875795921
255.9299951033663
255.929998585363
255.9299996714719
255.9299999372308
255.9299999902044
255.9299999988041
255.9299999999018
255.9299999999991
255.9300000000015
255.9300000000003
255.93
255.9299999999999
255.9299999999999
255.93
255.93
255.93
255.93
255.93
255.93