/*--------------------------------*- C++ -*----------------------------------*\
| =========                 |                                                 |
| \\      /  F ield         | OpenFOAM: The Open Source CFD Toolbox           |
|  \\    /   O peration     | Version:  v1912                                 |
|   \\  /    A nd           | Website:  www.openfoam.com                      |
|    \\/     M anipulation  |                                                 |
\*---------------------------------------------------------------------------*/
FoamFile
{
    version     2.0;
    format      ascii;
    class       volVectorField;
    location    "0.001";
    object      U;
}
// * * * * * * * * * * * * * * * * * * * * * * * * * * * * * * * * * * * * * //

dimensions      [0 1 -1 0 0 0 0];


internalField   nonuniform List<vector> 
16000
(
(114.6609314797228 -2.393181181112438e-25 -8.601375979029729)
(114.9161394564756 -4.434107356206435e-22 -8.577734832283799)
(114.9212288843838 -1.210218867447311e-25 -8.195443915895478)
(114.6138874910997 4.066653077119313e-22 -9.034604521655025)
(114.5941152842273 0 -8.273781120505504)
(114.3411407102834 1.490412246738696e-25 -8.958265015927502)
(114.2456725660381 -4.063271041954253e-22 -8.612316876965794)
(114.0532489506344 -4.024526162133457e-22 -8.881944626466328)
(113.8999163115501 1.887930424427484e-25 -8.847538555277623)
(113.7212334961211 4.162997973672096e-22 -8.944893560664392)
(113.5424894255198 4.240808441835319e-22 -8.993298073060878)
(113.3542546443533 4.296884766017313e-22 -9.063080933927381)
(113.161152858038 4.366356599329478e-22 -9.124376151144952)
(112.9605330049984 -3.547012234355169e-27 -9.194657334122573)
(112.7551211330016 5.130520710300221e-27 -9.260512729854861)
(112.5426908058474 2.491841499656477e-25 -9.33402432468475)
(112.3255942368791 -4.661820309507187e-22 -9.405274674161531)
(112.102496897891 -4.749832536586283e-22 -9.482028286280245)
(111.8747161921543 6.139404856576527e-25 -9.559923439002349)
(111.6422487419384 0 -9.640864139944624)
(111.4045515676078 0 -9.725882414233928)
(111.1631986830613 1.091469789464677e-24 -9.812814349592351)
(110.915939995191 -1.041434825785656e-21 -9.905966221937666)
(110.664967048653 -1.060487571004564e-21 -10.00154635035352)
(110.4071078308224 0 -10.10471811377961)
(110.144611930581 -1.098104487344866e-21 -10.21186738754626)
(109.8739830937418 -1.118301680025587e-21 -10.32755263966799)
(109.5970771845732 0 -10.44867554486023)
(109.3099976953877 -6.393338986224195e-24 -10.57841212460361)
(109.0139855487498 -2.436871853479868e-25 -10.71364594108205)
(108.7044960345335 0 -10.85587376324759)
(108.3817296042039 -1.959746521986899e-23 -11.00189608447561)
(108.0398855384187 0 -11.15297500833895)
(107.6775973891691 2.576193412375488e-23 -11.30667686591487)
(107.2873178445068 -2.842892304123982e-23 -11.46366096197472)
(106.8687912016867 0 -11.61386979048359)
(106.4134785303411 -3.810258681085233e-23 -11.73730244668205)
(105.9257450423939 0 -11.78638196764192)
(105.4100384276567 5.037189291626393e-22 -11.68849884117263)
(104.883249179697 2.118025084781264e-21 -11.34748555516821)
(104.3696154073277 -7.821681149818383e-23 -10.67601386872643)
(103.9012922450674 6.770025268793462e-23 -9.629548301442814)
(103.5048459420869 -6.766971455110465e-21 -8.242390994364976)
(103.1992985373925 -7.146291244290073e-21 -6.638262631237741)
(102.9882642433823 0 -4.995583040860154)
(102.8621249353765 -1.318645436580554e-23 -3.495418664569679)
(102.8000242767727 -5.803738429716647e-24 -2.266019408668774)
(102.7782147214531 0 -1.358043824499201)
(102.7769341338269 1.748259642601881e-25 -0.7512867707168566)
(102.783051807318 -1.253852545202657e-24 -0.3832510786395381)
(102.7897595792633 0 -0.1801187215262852)
(102.7946421308691 7.033598058650575e-25 -0.07791366797953833)
(102.797516736097 1.785775261881784e-22 -0.03099395839612067)
(102.7989688882305 6.860415652261871e-23 -0.01132827684780681)
(102.7996139668153 2.413085317613612e-23 -0.003801336728801719)
(102.7998691440938 7.714502361156589e-24 -0.001170300063600124)
(102.7999597890809 8.263950652830668e-27 -0.0003303194453805117)
(102.7999887634936 1.703043316232882e-28 -8.545144835769315e-05)
(102.7999971487927 1.49081716814291e-25 -2.024607181044804e-05)
(102.7999993403592 3.270132312603598e-26 -4.394609507937191e-06)
(102.799999861372 6.732028463595501e-27 -8.730837916020599e-07)
(102.7999999733659 2.514341306695033e-27 -1.589381177960727e-07)
(102.7999999953507 4.263115038780225e-28 -2.647034182113774e-08)
(102.7999999992569 3.344784933787058e-29 -4.042057398849091e-09)
(102.7999999998934 3.788243818143034e-33 -5.640728715121864e-10)
(102.7999999999862 0 -7.235120919731555e-11)
(102.7999999999984 -7.481850387403408e-32 -8.532221817705287e-12)
(102.8 -8.120084190209324e-33 -9.07470456411678e-13)
(102.8000000000001 6.873521883187095e-34 -4.521971898631434e-14)
(102.7999999999999 -6.39606584536268e-37 1.73218708881996e-14)
(102.8 3.546879321182552e-36 -2.023226024104392e-14)
(102.8000000000002 -8.924249029958725e-36 -2.071337584883353e-14)
(102.7999999999999 -2.049122099349509e-36 -1.969906807330675e-14)
(102.8 0 -7.031815361451644e-14)
(102.8 -1.977881910091277e-34 -3.052126534005734e-14)
(102.8 1.056246395054206e-35 6.115888184497608e-14)
(102.7999999999999 0 1.388529522261136e-14)
(102.8 8.413820212701365e-37 -2.048592975186408e-14)
(102.8000000000001 0 -7.153487459424834e-14)
(102.8 1.590941498287603e-37 -5.954944383325993e-14)
(114.3982558042243 -3.401930699657216e-22 -9.796002093520363)
(114.6267717290483 -4.771008253288841e-22 -9.705578155414811)
(114.6318120411602 -3.591847150726752e-22 -9.335599993962935)
(114.2819968163118 -4.38338255496927e-22 -10.18987514870808)
(114.2698838625554 0 -9.353683299746798)
(113.9796136704804 4.235614743840216e-22 -10.1083156950194)
(113.8876322961805 4.32287424922369e-22 -9.677239703478433)
(113.6722346254337 4.786163737114853e-25 -9.991656849178018)
(113.5113957908352 -4.399568934358237e-22 -9.915675680466597)
(113.3172974328603 -4.405618320436681e-22 -10.01542274132759)
(113.1250455572522 -3.048356188938183e-26 -10.04671706054757)
(112.9223954511101 -4.529735240929341e-22 -10.10578940911231)
(112.7145826139414 -4.593394159332436e-22 -10.15265849589098)
(112.4997658164078 -4.656074483637318e-22 -10.20946676540418)
(112.2798517489254 -4.725691708264667e-22 -10.25959475868338)
(112.0533079751641 4.802807170664378e-22 -10.3176046555876)
(111.8221164368744 4.884016599304171e-22 -10.37180323227603)
(111.5847504303056 4.954970987290841e-22 -10.43102290054317)
(111.3430335866945 5.064803007288534e-22 -10.49048238751803)
(111.096453144892 0 -10.55205303354092)
(110.8459494656007 0 -10.61747873586353)
(110.5923412055419 8.98225256518237e-25 -10.68385856908757)
(110.335024988699 -1.100588788585799e-21 -10.7567980518558)
(110.0755180378101 -1.13022361253564e-21 -10.83165798916755)
(109.8121236024683 4.364516059152409e-24 -10.91515958425337)
(109.5463433882904 5.105039026337945e-24 -11.00305518154302)
(109.2760488959874 -3.484639704056955e-24 -11.10150126113819)
(109.0024025086592 1.245184312653391e-21 -11.20730857954674)
(108.7229157180764 1.266116243154713e-21 -11.32527183124447)
(108.4381827564943 0 -11.45265698274105)
(108.1449366628489 -1.299185736321797e-21 -11.59273092552136)
(107.8426791943494 -1.325085262053049e-21 -11.74301021558104)
(107.5264096252889 3.274215299945927e-23 -11.90646903177108)
(107.1941599888943 2.040769040995344e-23 -12.0818590211836)
(106.8383520819357 1.300337274474536e-21 -12.27182293246417)
(106.4563930981611 1.264198369858703e-21 -12.46845508067921)
(106.0405515768408 -9.410327628580894e-23 -12.6541418129348)
(105.5926495485557 0 -12.78000343776719)
(105.1155019769444 3.803722654722761e-23 -12.76803730186611)
(104.6252372903181 -1.601091882191195e-21 -12.50770563469218)
(104.1451700502809 -3.816447536187024e-21 -11.88977734077397)
(103.7059645563875 -7.338738138869141e-23 -10.84537073237705)
(103.3374756823426 5.087795434579939e-23 -9.392308790258459)
(103.0592488010307 0 -7.651912269803251)
(102.8767653841208 0 -5.821479170735699)
(102.7780389881735 -1.078660042570286e-23 -4.113986546831959)
(102.7407262040749 -3.692056163479606e-24 -2.6907641532048)
(102.739510290224 -9.145121661848952e-24 -1.625216491799412)
(102.753671284662 1.990980283238936e-21 -0.9052073848261715)
(102.770228821148 1.107321040263114e-21 -0.4645028666759466)
(102.7832865011701 0 -0.2194227086281786)
(102.791656569544 1.133108259460172e-24 -0.09533591441896885)
(102.7962586455334 -8.674070758055083e-25 -0.03806584632150574)
(102.7984854267269 8.491919009136956e-23 -0.0139553406551767)
(102.7994446692116 2.998781795788257e-23 -0.004693301364833508)
(102.7998151728501 0 -0.001446898303530123)
(102.7999441476947 -2.801877841762403e-24 -0.0004085715859298675)
(102.7999846425977 -1.505210379024971e-24 -0.0001056314997454657)
(102.7999961645423 1.698647331312126e-27 -2.498590093539002e-05)
(102.7999991269402 8.215709595569142e-26 -5.407434727853931e-06)
(102.7999998195759 -2.205401841321668e-31 -1.069887456748351e-06)
(102.7999999659438 -3.049687984841325e-29 -1.93652072954978e-07)
(102.799999994169 -2.966610401675647e-30 -3.202839832708514e-08)
(102.799999999087 -4.036885153770532e-29 -4.846775338542383e-09)
(102.7999999998721 -5.82201117728567e-30 -6.699828578808448e-10)
(102.7999999999837 -7.357314559440404e-31 -8.490651690589423e-11)
(102.7999999999981 0 -9.853606609555395e-12)
(102.7999999999999 0 -1.05420524867197e-12)
(102.8000000000001 -5.024837043135167e-34 -8.305806704486049e-14)
(102.8 -3.229330055857288e-34 3.113598646205975e-14)
(102.8000000000001 0 3.004888889372017e-14)
(102.8 0 2.553934017372818e-15)
(102.8 0 -3.191119664831536e-14)
(102.8000000000002 7.085891121698324e-36 -4.29696435192262e-14)
(102.8000000000001 -5.823551299387433e-35 -1.991716882872616e-14)
(102.8 -2.436727749628562e-34 3.159779609525462e-14)
(102.8000000000001 -1.90164516768571e-34 -1.47805284079846e-14)
(102.8 0 -7.228294580023248e-15)
(102.8000000000001 0 1.318296031492824e-14)
(102.8000000000001 0 -2.352243916377164e-14)
(114.1140204894725 0 -11.04716394044319)
(114.3017731775123 5.129755652280209e-22 -10.85519968120465)
(114.2997326727418 7.729788186155343e-22 -10.53117823250201)
(113.9097681129665 9.443909240607486e-22 -11.37183724922823)
(113.8989779503019 -2.296245252827214e-25 -10.48291617928807)
(113.5721090554729 -4.525376149371918e-22 -11.2927932418029)
(113.4802352968045 -4.585612572331611e-22 -10.78471052324506)
(113.2403651040653 -4.533024087672013e-22 -11.14096997575621)
(113.0704744122592 -2.334329800095745e-25 -11.02160466896597)
(112.8587709421114 4.633428094211561e-22 -11.12300518321526)
(112.6507794205973 4.705601017725625e-22 -11.13507174184942)
(112.4312753074142 4.739460915157155e-22 -11.18138117123974)
(112.2060233218078 4.796712808856353e-22 -11.21144322292958)
(111.974458173116 0 -11.25234137078873)
(111.7372463156421 0 -11.28429844840988)
(111.4939628825632 0 -11.32413732818939)
(111.2456364214194 1.541959563056478e-24 -11.35870134857487)
(110.990780670823 -1.664613098239549e-24 -11.39738744211902)
(110.7315723564929 5.199485344626727e-22 -11.43543076845661)
(110.4667941706973 -4.817922014673285e-26 -11.47409794349744)
(110.1989800754348 -5.399818355697843e-22 -11.5160083973501)
(109.9280646897558 0 -11.55726955461826)
(109.6551648375168 0 -11.6048214012677)
(109.3812023280148 1.15341335064236e-21 -11.65292082595831)
(109.1058017461881 1.194910070042993e-21 -11.70991285585246)
(108.8299618408959 5.467911404708708e-24 -11.77075955563587)
(108.5525290323737 0 -11.84319553742434)
(108.27442193354 6.472709556295158e-24 -11.92381171632522)
(107.9940986512314 7.189255811350338e-24 -12.0190929808835)
(107.7120644069375 0 -12.12679130876693)
(107.4260582303468 -1.418412772598012e-21 -12.2519969435888)
(107.1356474603836 -2.911723513803023e-21 -12.39327296159441)
(106.836804453197 -2.966272808366471e-21 -12.555688079507)
(106.5274645399641 -3.076066772984102e-21 -12.73975866470487)
(106.2004911085696 6.916579462751009e-23 -12.95100324981797)
(105.8524697322944 3.114633680888845e-21 -13.18448808936733)
(105.475032680727 1.278601846633999e-21 -13.42613362541119)
(105.0685648919717 0 -13.62824129777945)
(104.6342705540119 0 -13.70927239778664)
(104.1875449507972 0 -13.54609993607528)
(103.7513761767375 -1.428694555797883e-22 -13.00720572860334)
(103.3574303333311 5.663876071298883e-21 -11.9960322359099)
(103.0369973019821 7.934908090709676e-21 -10.50750913283015)
(102.8101375931396 1.700095925418102e-22 -8.656095629616313)
(102.680641149118 0 -6.654093088916791)
(102.6330694818143 0 -4.746232568974493)
(102.641027963532 -2.920211633880627e-23 -3.129367676660842)
(102.6761199012241 2.415394563777735e-24 -1.903017204149827)
(102.7165680884224 6.845975201925242e-24 -1.065939622828811)
(102.7502856007947 0 -0.5495164230102478)
(102.7734595339543 6.736721522090233e-22 -0.2605580445446314)
(102.7872233859678 3.132356571461908e-22 -0.1135475167918034)
(102.7944293251996 -3.527735261539748e-24 -0.04544095074735777)
(102.7977956177327 0 -0.01668509785314357)
(102.7992073434575 3.613083994706203e-23 -0.005616075263474115)
(102.7997407259254 1.175596136492173e-23 -0.001731472454546704)
(102.7999228875489 4.668447330861213e-26 -0.000488560763808231)
(102.7999791179068 9.224006967361202e-25 -0.0001261007555575362)
(102.7999948603795 4.42567886859652e-25 -2.97498619267475e-05)
(102.7999988473527 1.00037590334998e-25 -6.414628808344778e-06)
(102.7999997652552 9.933972163665705e-27 -1.26308597501757e-06)
(102.7999999563844 3.150515592912659e-29 -2.272256787613183e-07)
(102.7999999926489 0 -3.730452171449192e-08)
(102.7999999988684 4.715316731174904e-29 -5.595924252820592e-09)
(102.7999999998434 6.142480677961332e-30 -7.653339448767607e-10)
(102.7999999999802 0 -9.596448332108615e-11)
(102.7999999999978 0 -1.097143473809413e-11)
(102.7999999999998 -9.923940668350458e-33 -1.168256786517036e-12)
(102.8000000000001 -9.349913968077531e-35 -1.170501911470977e-13)
(102.8 2.481283099350773e-34 2.91827911005787e-14)
(102.7999999999999 -2.010773256001911e-34 6.968024180176287e-14)
(102.8000000000001 -2.866472131320367e-34 3.004927296380142e-14)
(102.8 9.299788832416537e-35 -1.561912887485251e-14)
(102.8000000000001 0 -3.536730428586351e-14)
(102.8000000000001 2.048044244615036e-36 -2.1000931431506e-14)
(102.8000000000001 3.090852280053034e-34 4.083069656337445e-15)
(102.8000000000001 -1.750537808156108e-36 -1.79605144147795e-14)
(102.8000000000001 1.999630389341072e-35 -1.738635262737476e-14)
(102.8000000000001 0 5.660268794244834e-14)
(102.8 -1.773134110073641e-35 3.613188747794573e-14)
(113.8014084414379 -9.199452796352621e-27 -12.36366130105372)
(113.935111214183 -1.091053137996103e-25 -12.02208811212943)
(113.9142650160128 0 -11.78343210079359)
(113.4891957420313 0 -12.57192835172425)
(113.4734727862519 5.157772935589021e-25 -11.66063823271401)
(113.1122280683651 4.83184769104151e-22 -12.5016566078731)
(113.0169342600469 4.851517389259615e-22 -11.93347741700346)
(112.7536722753702 0 -12.3209773356236)
(112.573861477188 0 -12.16206352703385)
(112.3441896410731 0 -12.26275924026479)
(112.1198245997965 0 -12.2555827867015)
(111.8828496320475 0 -12.28799937132805)
(111.6394168474383 4.100070772909388e-24 -12.30020261872995)
(111.3906486000098 0 -12.32386970395735)
(111.1355054422492 0 -12.33634450411215)
(110.8750376069774 0 -12.35618684651601)
(110.6089761791757 4.631006991029537e-24 -12.36942821732062)
(110.3358927166073 5.217920094038745e-22 -12.38535396228066)
(110.0583676272979 5.234977310824077e-22 -12.39964215601676)
(109.7741055979166 0 -12.41275125696355)
(109.4875820372521 -5.454932988824968e-22 -12.42808307680135)
(109.1974641584364 -5.55639125288398e-22 -12.44090687786797)
(108.9069064279898 0 -12.45923314439482)
(108.6160160550777 0 -12.47628791490952)
(108.3257995933804 -1.194754834554421e-21 -12.50178860532193)
(108.0366304750879 -1.230794838433759e-21 -12.52983843221951)
(107.7482444547156 1.283730194897402e-21 -12.5695042132301)
(107.4612633817538 1.32951153837727e-21 -12.61702803281509)
(107.1749377385863 1.190434836701745e-23 -12.68035432050388)
(106.8897495138664 0 -12.75754359665458)
(106.6044242163417 0 -12.85536324579962)
(106.3187621328834 -2.994653312404441e-23 -12.97347246502611)
(106.029881222523 0 -13.11908647395238)
(105.7359348454344 1.684051017866856e-21 -13.29489265506593)
(105.4305804315332 1.816530962965723e-21 -13.50985021681503)
(105.109999477782 6.136405945380324e-23 -13.76314258142084)
(104.7655011382883 -5.814630385330587e-24 -14.04565487863367)
(104.3963388405714 0 -14.31293532295507)
(104.0028109574968 0 -14.48231722379328)
(103.6002687802084 0 -14.42017541693712)
(103.2126208510218 2.997874126654983e-21 -13.97381115708115)
(102.8737268107994 5.646676375252627e-21 -13.01777563724511)
(102.6164787866995 1.876292028510438e-22 -11.52075823400873)
(102.4605765285496 1.342472486696929e-22 -9.585818561801949)
(102.4061650078931 -9.219192652321846e-21 -7.43616376953397)
(102.4315887284344 -8.003115202614229e-21 -5.34612667898958)
(102.503869799894 -6.904981839692644e-24 -3.548044661231798)
(102.5899774538383 0 -2.16885289215676)
(102.666830082492 2.694653564730843e-21 -1.219656848403988)
(102.7239331420267 3.054495907313106e-21 -0.6305666651826276)
(102.7606648506828 7.745170742053139e-22 -0.2995713404519046)
(102.7815365640639 -3.643195269410956e-22 -0.1306994125428463)
(102.7921182468381 -1.58037921742068e-22 -0.05232729861757111)
(102.7969376061977 0 -0.01920836510116079)
(102.7989167110314 0 -0.006459078125119977)
(102.7996510062486 -1.329471051401366e-23 -0.001987959069600556)
(102.7998976740444 -3.882198658442272e-24 -0.0005595394249895056)
(102.7999726759353 1.854684302674728e-26 -0.000143940245466344)
(102.7999933653385 0 -3.381572096805726e-05)
(102.7999985327077 3.050622394029615e-27 -7.253366211574823e-06)
(102.7999997052399 0 -1.419350730071752e-06)
(102.7999999460367 9.639938926296206e-30 -2.534424630564576e-07)
(102.7999999910363 -1.383728069178847e-29 -4.125175939829781e-08)
(102.7999999986426 0 -6.125453990289546e-09)
(102.799999999814 -3.03085823067805e-32 -8.286776579987803e-10)
(102.7999999999766 0 -1.025162395461007e-10)
(102.7999999999975 4.712198752780079e-33 -1.154079005985727e-11)
(102.7999999999998 1.560598489561612e-33 -1.213834654902471e-12)
(102.8 4.309592976633274e-35 -1.100709999087754e-13)
(102.8 -5.243105063164074e-34 1.998523442895996e-14)
(102.8 1.274632136416602e-34 2.590145531313026e-14)
(102.7999999999999 -7.34296965224209e-35 5.5934814846573e-14)
(102.7999999999999 1.638024068422238e-34 4.91032903920295e-14)
(102.8000000000001 4.752160169524611e-35 2.765524539640221e-15)
(102.8000000000001 0 1.924434763410343e-14)
(102.8 -5.397738803393902e-36 2.132885073185975e-14)
(102.8000000000001 3.150891652888383e-35 -3.494368316405406e-14)
(102.8000000000001 2.076741822671948e-35 -2.912468176496176e-14)
(102.8000000000001 0 4.550388212900116e-14)
(102.7999999999999 0 5.04312778252507e-14)
(113.4673061804835 1.238415552104513e-24 -13.75395498662895)
(113.5360010261757 1.379135858466514e-24 -13.19642945917301)
(113.4789768543809 0 -13.0963355087326)
(113.0275373600851 5.49774535446158e-22 -13.7820258670376)
(112.9983326452361 9.939722918488723e-22 -12.88677598759953)
(112.6051341962685 5.152125385807061e-22 -13.7285296526848)
(112.501537522193 -1.280534001296383e-24 -13.12233878258098)
(112.2161288891954 -5.077038451217898e-22 -13.52370640481671)
(112.0240615928035 1.559038551197694e-25 -13.33319769929167)
(111.7756920865775 5.090651253273321e-22 -13.42807976960617)
(111.5337209507084 0 -13.40203313759202)
(111.2783849244222 0 -13.41904017113139)
(111.015957134517 5.281037743467957e-22 -13.4123869407457)
(110.74962266172 -2.2735944225207e-25 -13.4175690084739)
(110.476225926283 -6.612010374396745e-24 -13.40974015836104)
(110.1985356505299 6.883417378885598e-24 -13.40815128859057)
(109.9147547378827 -5.191096075026398e-22 -13.39908619254245)
(109.623428668144 -5.238357289860793e-22 -13.39062302643636)
(109.3275955614777 -5.445121922581295e-22 -13.37967347191911)
(109.0235093242775 7.986322503853483e-24 -13.36549761816385)
(108.7180061315731 1.620656330191991e-23 -13.35213712407426)
(108.4080578740799 0 -13.33443308868821)
(108.0992332160355 1.639184866158378e-23 -13.32098363332921)
(107.7905813816362 0 -13.30432389006775)
(107.4846268870538 1.617291176593689e-23 -13.29510501661106)
(107.1809410596351 0 -13.28671927464737)
(106.8800791219433 1.797919611163853e-23 -13.2891867586871)
(106.5822282718337 -1.268646230662707e-21 -13.2983141227444)
(106.287298431465 -1.366644583019422e-21 -13.32313796002628)
(105.99562883521 -1.385746774815421e-21 -13.36182215280281)
(105.7068270306476 -2.991739522076893e-21 -13.42244694471697)
(105.4208485493561 -1.563891633953607e-21 -13.50562052318321)
(105.1359949431505 -1.650253734078892e-21 -13.62045896094852)
(104.8506432211842 -1.760498056295173e-21 -13.77200599539548)
(104.5595094223187 -3.826374233987501e-23 -13.97292316026039)
(104.2584594351454 5.363300487166715e-23 -14.22732699514009)
(103.9390398699619 2.055693683236838e-21 -14.53216235666824)
(103.5997245786138 1.777524083673501e-21 -14.8479474613168)
(103.2409914916865 -1.217599089112607e-21 -15.09297439769129)
(102.8792065929984 -2.206132568461695e-22 -15.12548558338737)
(102.5408227560818 2.177561918215014e-22 -14.77350811831108)
(102.2632748916119 -2.235087940906207e-22 -13.88336341975426)
(102.0816600737233 8.114956394364047e-21 -12.39637332958524)
(102.0146572676996 5.940129284121025e-24 -10.40144942409848)
(102.0564863826719 -9.755427634678027e-21 -8.129199545442027)
(102.1762537743869 2.466188024052912e-23 -5.880502233938645)
(102.331493552097 0 -3.92124018356002)
(102.4828870049805 -4.496070941019673e-24 -2.404997316843145)
(102.6057735581516 0 -1.355245952475607)
(102.6920348352162 0 -0.7013326012736774)
(102.745409557018 -8.961484085835127e-22 -0.3331937310628758)
(102.7748634316843 -4.162160186954436e-22 -0.1452524950941658)
(102.7894512754708 6.143944957222255e-24 -0.05806478454031435)
(102.7959648496397 0 -0.02126711861165784)
(102.7985932997882 1.095510495211513e-24 -0.007130506201985078)
(102.7995531409141 0 -0.002186623506680284)
(102.7998707508026 -4.385913395159152e-24 -0.0006127535537051964)
(102.7999659548003 -1.132132366532959e-29 -0.0001568077527540327)
(102.79999184423 2.800920899878221e-25 -3.661494787790972e-05)
(102.7999982214361 3.303462759044429e-28 -7.79847197477482e-06)
(102.7999996476859 0 -1.513740598445062e-06)
(102.7999999364625 -9.69458033427861e-29 -2.678051254159085e-07)
(102.7999999896056 -1.654758264008955e-29 -4.313618034959283e-08)
(102.7999999984505 0 -6.330085616115638e-09)
(102.7999999997906 7.185693138772659e-30 -8.453325930692594e-10)
(102.7999999999742 1.010307901133213e-30 -1.028422350857148e-10)
(102.7999999999972 5.276619447336493e-33 -1.135939543928947e-11)
(102.7999999999997 -9.504992109466183e-33 -1.15468452856741e-12)
(102.8 -8.837508201280376e-34 -9.826121581838939e-14)
(102.8 1.595597718427673e-34 3.050509849383806e-14)
(102.8000000000001 -5.105552627284627e-35 -1.221606653117714e-15)
(102.7999999999999 -2.028291890076128e-34 -1.387584004802656e-14)
(102.7999999999999 1.806374879872101e-34 2.257714766753352e-14)
(102.7999999999999 8.789705765394448e-36 4.011075545775624e-14)
(102.8 0 5.275129638156604e-14)
(102.8 -3.653865326171018e-35 1.499566700501427e-14)
(102.8 -1.416570792233093e-34 -4.179286725944998e-14)
(102.8 -1.198176345214442e-34 -1.800896011288747e-14)
(102.8000000000001 -1.48490733351217e-34 6.206016121889694e-14)
(102.7999999999999 1.838947328528019e-34 7.623790990436446e-14)
(113.0999388604794 -9.624715386122556e-22 -15.23399853328741)
(113.0994778512297 -1.259515346576718e-21 -14.3740274364868)
(112.9824890471726 -4.798340806138358e-22 -14.47980719651794)
(112.5203512453001 -5.963370514622767e-22 -14.99725392917915)
(112.4666779198104 -5.256262741438275e-22 -14.16421819080954)
(112.0452611308548 0 -14.97172120391435)
(111.9282864353823 -3.035665612025685e-24 -14.35136795257173)
(111.6219630850415 0 -14.74618036506229)
(111.4144980349281 0 -14.53420599360277)
(111.1464836384623 -4.276669221962558e-24 -14.61632474174507)
(110.8852157509442 5.351590232334842e-22 -14.57179623466671)
(110.6102762690578 -2.878210741777346e-25 -14.57129824984679)
(110.3278373458452 -5.222368657414873e-22 -14.54443325479547)
(110.0432617900079 -5.406625447053176e-22 -14.52929044347233)
(109.7512425805559 -1.091513081326403e-21 -14.49993457331915)
(109.456176366027 1.127701373918961e-23 -14.47499288344627)
(109.1547286424823 5.309665471360734e-22 -14.44226588977218)
(108.8453444786357 1.15213390970525e-23 -14.40752186449536)
(108.5314643011371 2.128630882415761e-23 -14.36957652523372)
(108.2078557483327 3.366891144790625e-23 -14.32640932676803)
(107.8838091536173 4.625991105185319e-23 -14.28216796901338)
(107.5545104534512 5.324035620277942e-22 -14.23215684868663)
(107.228076737996 5.850149330696341e-22 -14.18470264053241)
(106.9024389977744 0 -14.13242032528461)
(106.5815958621951 2.430639725655268e-23 -14.08614513365473)
(106.264299124289 1.187805058456165e-21 -14.03903909287067)
(105.9517554857857 1.221754062299599e-21 -14.00153138964543)
(105.6436465825403 1.288202317577862e-21 -13.9690864157992)
(105.3403313249957 1.271279341254856e-21 -13.95136470000697)
(105.0418988209324 1.419135953870969e-21 -13.94652687587413)
(104.7485818855915 -4.179896404893037e-23 -13.96344287097602)
(104.4603878350871 -3.02332488275398e-21 -14.0034062175733)
(104.1765844697188 -1.638145644128698e-21 -14.07697960776026)
(103.8956970308422 0 -14.19142154902215)
(103.6134317237094 1.96444111361946e-21 -14.36298883713265)
(103.3253465730412 7.519193773385107e-23 -14.6010896871486)
(103.0234862118285 -2.082827779518897e-21 -14.90929213348785)
(102.705893580168 0 -15.25425268413205)
(102.3742342557965 1.457582832842089e-22 -15.5567648633372)
(102.0471665348162 0 -15.66915115414477)
(101.755627903633 -1.782990376361143e-21 -15.40257493434819)
(101.5424026831493 2.102240399437387e-22 -14.57732635789668)
(101.4458522213634 8.215793004684738e-21 -13.10855294194307)
(101.4831356876015 1.045174256392672e-20 -11.07061529145425)
(101.6402985678002 2.128395613908843e-20 -8.699354102105994)
(101.873977499694 1.913783807370581e-20 -6.318791229646381)
(102.1291978648629 7.525568643379313e-21 -4.224699286523466)
(102.3586525764158 5.324373126581405e-21 -2.594351942795607)
(102.5359174341452 6.652980997809913e-21 -1.461915142702907)
(102.6561097343334 3.754650054379233e-21 -0.7556822460451345)
(102.7285252385415 2.484377259319631e-23 -0.3582749993858985)
(102.7676160213852 -4.568700400015381e-22 -0.1557391457770563)
(102.7866134307567 1.679756530576992e-23 -0.06203324460907686)
(102.7949524797631 -3.1436869640484e-24 -0.02262330662812952)
(102.7982647471893 1.554420253416434e-24 -0.007547467420209732)
(102.7994563232639 0 -0.002301298741829108)
(102.7998448865118 1.351862183400266e-25 -0.0006407277423712172)
(102.7999597079389 1.187804985216509e-24 -0.0001627736223558392)
(102.7999904824746 2.931257626809474e-25 -3.769857350361559e-05)
(102.7999979547082 -2.619055380252332e-27 -7.956055605703218e-06)
(102.7999996008446 1.257064609792619e-26 -1.528675621200276e-06)
(102.7999999291546 4.507634041093264e-27 -2.673838077174181e-07)
(102.799999988596 7.336861674605833e-28 -4.252861356504153e-08)
(102.7999999983292 5.882602152636683e-29 -6.153971267591875e-09)
(102.7999999997783 -1.354909548672021e-30 -8.08904917141617e-10)
(102.7999999999732 8.998347934486767e-32 -9.665286191821728e-11)
(102.7999999999971 9.767345282404042e-32 -1.03858354773754e-11)
(102.7999999999997 -9.579992007924037e-34 -9.341395425711251e-13)
(102.8 -1.283279591736673e-33 -8.440574606851373e-14)
(102.8 -1.414624145728763e-34 9.828740718896078e-15)
(102.8 4.641697139817024e-34 -1.951326915355362e-14)
(102.8 2.448261692457681e-34 -3.83631229558689e-14)
(102.7999999999999 3.846340947205962e-35 1.349099960052229e-14)
(102.7999999999999 1.546354207138592e-34 5.642641320728444e-14)
(102.8 0 8.179440474603428e-14)
(102.8 2.069797965711753e-34 1.537776754499026e-14)
(102.8000000000001 1.950852490656327e-34 -8.140450921455454e-14)
(102.8000000000001 8.139650317336034e-35 -8.375388654424781e-15)
(102.8000000000001 1.872386208088181e-34 7.154707225875643e-14)
(102.7999999999998 1.271428089349397e-34 9.406205998173678e-14)
(112.6749080085802 0 -16.80706678161362)
(112.6117022884564 1.61101455875532e-24 -15.53631179474811)
(112.4035394037895 5.141187522188349e-22 -15.93581481066305)
(111.9549844175839 6.447891289889679e-22 -16.20509304291712)
(111.8612486187227 6.322717456948593e-25 -15.49149782305361)
(111.4179916645314 5.883754351476065e-22 -16.22907061521666)
(111.2821045371615 5.775995833757871e-22 -15.61807067200881)
(110.9562549166997 5.746468814978961e-22 -15.9873522238243)
(110.730134198229 -4.711521847807296e-24 -15.76381817593805)
(110.4417587850859 9.705118919366203e-24 -15.82586246782284)
(110.1596245924786 1.133994136030809e-21 -15.76273075106883)
(109.8640987189583 5.686250361831228e-22 -15.74201854514617)
(109.5610330112588 1.215002898702345e-23 -15.69312026829344)
(109.2577325682792 5.639997878475988e-22 -15.65501420529263)
(108.9470926892516 5.611181843640295e-22 -15.6020933600897)
(108.6346434648831 0 -15.55123205588617)
(108.3157179195356 -5.709044454150166e-22 -15.49255314657836)
(107.9887359700576 -5.545806760599471e-22 -15.42903820223001)
(107.6571396124818 2.906746103243497e-23 -15.36156867375054)
(107.3148671540712 2.958123458801723e-23 -15.28717026900072)
(106.9730669091043 2.397688086298087e-24 -15.20934728691187)
(106.625706709179 -3.026271928816043e-23 -15.12485038416458)
(106.2831156509441 5.851934548750378e-22 -15.04084218985815)
(105.9423698547591 5.89187723197948e-22 -14.95096728158955)
(105.6086724931739 -5.557647244822639e-23 -14.86544856438308)
(105.2801060141938 -5.479671054220472e-23 -14.77776633455034)
(104.958348819942 0 -14.69831882282273)
(104.6425389203646 -1.220716216709223e-21 -14.62238287577603)