/*--------------------------------*- C++ -*----------------------------------*\
| =========                 |                                                 |
| \\      /  F ield         | OpenFOAM: The Open Source CFD Toolbox           |
|  \\    /   O peration     | Version:  v1912                                 |
|   \\  /    A nd           | Website:  www.openfoam.com                      |
|    \\/     M anipulation  |                                                 |
\*---------------------------------------------------------------------------*/
FoamFile
{
    version     2.0;
    format      ascii;
    class       volVectorField;
    location    "0.003/wallFilmRegion";
    object      Uf;
}
// * * * * * * * * * * * * * * * * * * * * * * * * * * * * * * * * * * * * * //

dimensions      [0 1 -1 0 0 0 0];


internalField   nonuniform List<vector> 
120
(
(0.01739150113323108 0 -0.001269860779087831)
(0.01725963718727249 3.586889828400865e-22 -0.00143689199238088)
(0.01712419539365395 4.078684685804677e-22 -0.001607176265407913)
(0.01699249899176459 0 -0.001782457878798831)
(0.01686847277268446 0 -0.001962705257278066)
(0.01675076321443936 -5.722743713349211e-22 -0.002149865862269517)
(0.01663484043192519 0 -0.002341914506382616)
(0.01651462155806919 0 -0.002539657587144854)
(0.01638079167272753 3.833255697591601e-22 -0.00274350230606474)
(0.0162261184431414 4.194137315175807e-22 -0.002951055651434875)
(0.0160464482573807 -4.57621819935579e-22 -0.003162018380618729)
(0.01583638367327259 0 -0.003376404216124693)
(0.01559131602585736 0 -0.00359287919141139)
(0.01530755845463411 0 -0.003810379847330693)
(0.0149788191070953 0 -0.004029812917927173)
(0.01460058403092262 -6.820495518151432e-22 -0.004247031808878501)
(0.01416329272377302 7.304396797352818e-22 -0.004462871377567281)
(0.01365422881185004 0 -0.004672973411690446)
(0.01306308053933105 0 -0.004869238996379128)
(0.01236987447694167 8.477584409392316e-22 -0.005048221811826055)
(0.0115548164230999 0 -0.005192632689300704)
(0.01058418126928487 0 -0.005287957487721945)
(0.009425156479719829 0 -0.005291130281546331)
(0.008032778289752282 -7.010848131587273e-22 -0.005153925828498229)
(0.006357172568047673 0 -0.004771155131751032)
(0.004393373043721951 0 -0.003999576837148045)
(0.002362322434306247 1.214037739919828e-22 -0.002764961831525051)
(0.0007776179654350924 -2.574177372160605e-22 -0.001302511424555365)
(5.937008129948423e-05 -1.884195000837012e-22 -0.0001815463433372718)
(-6.425707254403715e-05 6.820178400814229e-23 0.001180968020452953)
(0.0133316814929608 0 0.003026092702127668)
(0.01641077558976445 0 0.001092759118898639)
(0.01570309485615557 6.587993985265863e-23 0.0009865187043295468)
(0.01577100125958915 0 0.0009330707408959647)
(0.01587391913376869 3.314982602177103e-23 0.0008837078080651545)
(0.0159773296486537 0 0.0008345447150961427)
(0.01607350249610216 0 0.0007862119181542396)
(0.01616225664440024 0 0.00073773933699852)
(0.01624422080782934 0 0.0006891216576538742)
(0.01632089746516797 0 0.0006398448943134577)
(0.0163941123972262 -3.048162747389141e-23 0.0005903478136919073)
(0.01646518625062359 0 0.0005392135411508288)
(0.01653557766492336 0 0.0004876356060189355)
(0.01660700453433311 0 0.0004340465530059027)
(0.01667950481865029 0 0.0003782981496647498)
(0.01675347209587419 0 0.0003195553061171249)
(0.01683060747622146 0 0.0002591117248946598)
(0.01691168974159949 0 0.0001940718496812191)
(0.01699608277677147 0 0.0001254875997423601)
(0.01708378358418068 0 5.141626760914927e-05)
(0.01717435897792737 0 -2.720841217752616e-05)
(0.01726665075385703 6.617859280714186e-24 -0.0001126268951557255)
(0.01735720147639517 0 -0.0002051536993885475)
(0.0174421114737152 0 -0.0003051151775536118)
(0.01751556104577257 0 -0.0004139980572316141)
(0.0175717618802622 0 -0.000530858166099871)
(0.01760396865355901 9.596090691079815e-23 -0.0006590429911446024)
(0.01760507648257768 0 -0.000796207172908554)
(0.01757062608573448 0 -0.0009449080383939112)
(0.01749750690292388 -2.67105364860588e-22 -0.001104528608675448)
(0.01978036210135352 2.62753616340012e-22 -0.001244385779986227)
(0.01970334614609533 0 -0.001037736761248013)
(0.01962679306374653 1.757921756860267e-22 -0.0008257694691429488)
(0.01956688306422583 0 -0.0006069163511662173)
(0.01953359953108469 0 -0.0003832704946476478)
(0.01953145651581908 6.755402997230699e-23 -0.0001518488064660848)
(0.01955904186292397 -3.888454264077746e-23 8.815420881364607e-05)
(0.01961090745857888 0 0.0003408765956435455)
(0.01968338847394862 -2.042013542141708e-22 0.0006046050090905333)
(0.01977291133246259 2.329596170863362e-22 0.0008854192533761123)
(0.01987283215038041 -5.299700680826856e-22 0.001184800174822092)
(0.01998257488141432 0 0.001502884569766772)
(0.02009981005911168 6.823247603521599e-22 0.001845854483869993)
(0.02021863476420778 0 0.002217922459098958)
(0.02033857335766475 0 0.002618957605708568)
(0.02045429566283664 0 0.003062084297886207)
(0.0205581901337881 1.107978350380745e-21 0.003547038255047149)
(0.0206411454573954 0 0.004086511875488664)
(0.02069041175907451 -1.397702096706327e-21 0.004687696639679046)
(0.02069239716310832 0 0.005360394229319019)
(0.02061523186631884 0 0.006124039892776913)
(0.02041642953060058 -1.908629959731835e-21 0.006984857632094214)
(0.02002773160294853 0 0.007956708737466013)
(0.01933488725608105 0 0.009030588645779533)
(0.01814810901078068 0 0.01015468858175813)
(0.01618049948228444 2.088949843332024e-21 0.01116237372904084)
(0.01307538594408289 0 0.01163315178517655)
(0.008723094759686849 0 0.01080827016300713)
(0.004059897941245135 0 0.008106671391138444)
(0.0009028808626886008 0 0.004209278532705469)
(0.007706226798756799 2.652982389841107e-22 -0.001641364864304758)
(0.009517772671478209 -2.501806688140153e-22 -0.001987864853387755)
(0.01037381546828518 0 -0.002125323919093006)
(0.01102563851356974 0 -0.002217287121859063)
(0.01156229092758051 0 -0.002282496661015519)
(0.01202785446001518 0 -0.00233125533766616)
(0.01244649746625668 2.451817232233608e-22 -0.002369568500952009)
(0.01283183562029549 -2.458123014427148e-22 -0.002398728005645126)
(0.01319259515735507 0 -0.002422045462300028)
(0.01353565914689209 2.492983974166985e-22 -0.002439679887300218)
(0.01386563961263189 0 -0.002452928240312062)
(0.01418663443094302 -2.552433428118483e-22 -0.002461778425229113)
(0.01450205924631947 0 -0.002466934497423268)
(0.01481519169917246 2.645691557743829e-22 -0.002468120409348939)
(0.01512965293538455 2.710366415637727e-22 -0.002466040362957357)
(0.01545003999806205 0 -0.00246110758874716)
(0.01577969070257351 0 -0.002451664939656724)
(0.01612203049086762 0 -0.002439090340836401)
(0.0164815994870433 3.192136770443516e-22 -0.002422781317067997)
(0.01686017464899486 0 -0.002401257294191867)
(0.0172580181129977 0 -0.002374512707298701)
(0.01767246222699771 3.982395651406792e-22 -0.002340289248374949)
(0.01809378718908782 0 -0.002296339826075496)
(0.01850607341550178 0 -0.002237471495099706)
(0.01888961877805653 -2.675618644999621e-22 -0.002163155067758722)
(0.01922639271631519 2.977012958796392e-22 -0.002068495570780313)
(0.01949557741489745 0 -0.001950494146535463)
(0.01968175555265311 0 -0.00180747721703232)
(0.01978320198137909 0 -0.001640513977307689)
(0.01980781916359745 0 -0.001448664684031852)
)
;

boundaryField
{
    back
    {
        type            empty;
    }
    front
    {
        type            empty;
    }
    wallFilmFaces_top
    {
        type            slip;
    }
    region0_to_wallFilmRegion_wallFilmFaces
    {
        type            noSlip;
    }
}


// ************************************************************************* //
