/*--------------------------------*- C++ -*----------------------------------*\
| =========                 |                                                 |
| \\      /  F ield         | OpenFOAM: The Open Source CFD Toolbox           |
|  \\    /   O peration     | Version:  v1912                                 |
|   \\  /    A nd           | Website:  www.openfoam.com                      |
|    \\/     M anipulation  |                                                 |
\*---------------------------------------------------------------------------*/
FoamFile
{
    version     2.0;
    format      ascii;
    class       volVectorField;
    location    "0.001/wallFilmRegion";
    object      Uf;
}
// * * * * * * * * * * * * * * * * * * * * * * * * * * * * * * * * * * * * * //

dimensions      [0 1 -1 0 0 0 0];


internalField   nonuniform List<vector> 
120
(
(0.01817148311892557 0 -0.001326812075266394)
(0.01809740306941577 2.803371610392947e-23 -0.001506637322162741)
(0.01801586159570687 3.722228930684388e-23 -0.001690862810887121)
(0.01793003143054576 0 -0.001880801982449794)
(0.01784658859072642 0 -0.002076512421931791)
(0.01776570821459981 -9.794108427749845e-23 -0.002280128321358257)
(0.01768233853186115 0 -0.002489385172283337)
(0.01758826304466668 0 -0.002704764715862467)
(0.01747348955277999 1.346228717945536e-22 -0.002926510503327089)
(0.01732780262746561 1.833961853244078e-22 -0.003151419734172148)
(0.0171407499616363 -2.440641011254137e-22 -0.003377655015424009)
(0.01690132616980427 0 -0.003603455821428271)
(0.01660216862455284 0 -0.003825821122766886)
(0.01624204213796316 0 -0.004042992893047229)
(0.01582164031017397 0 -0.00425656055052663)
(0.01534767236696572 -6.742566701326761e-22 -0.004464345576635823)
(0.01482412062788549 7.663902420753983e-22 -0.004671099082542349)
(0.01425060187586887 0 -0.004877073951531244)
(0.01362620300006598 0 -0.005079141847187695)
(0.01293554052651592 9.996761745762453e-22 -0.005279073603814182)
(0.01215703158715727 0 -0.005463262877818919)
(0.0112521159494843 0 -0.005621663997805966)
(0.01018739147837487 0 -0.005719036671399499)
(0.008903180931448641 -9.591734446403443e-22 -0.005712386487365773)
(0.00732223242734953 0 -0.005495447299514072)
(0.005378309951226936 0 -0.004896229773765478)
(0.003187639073935261 2.391815654640691e-23 -0.003730947242473787)
(0.001268728669859964 -2.63394832335689e-22 -0.002125122695987239)
(0.0002400381579579677 -3.283894830898836e-22 -0.0007340069086121002)
(-2.605036814805469e-05 4.219682617009779e-23 0.0004787745610850068)
(0.01318072501011953 0 0.002991827833790838)
(0.01566174909051529 0 0.001042883015671577)
(0.0148452124041027 7.332620155212271e-23 0.0009326237815249194)
(0.01484150695657181 0 0.0008780784215308489)
(0.01492276242559825 3.427298410113589e-23 0.0008307565108700166)
(0.01503411034923132 0 0.0007852774909216727)
(0.01515655583681926 0 0.0007413608104373773)
(0.01527586203242311 0 0.0006972791347045764)
(0.01537566997296353 0 0.0006522754956766312)
(0.01545119893062773 0 0.000605749210047008)
(0.01550825110745746 -2.599667146312385e-23 0.0005584481741763361)
(0.01556108972795407 0 0.0005096055500774014)
(0.01562362810487314 0 0.0004607421351414637)
(0.01570336787034304 0 0.0004104287850716692)
(0.01580137990786228 0 0.0003583819091925395)
(0.01591721016019786 0 0.0003036044669525699)
(0.01605171952447641 0 0.000247120535571193)
(0.01620497900590758 0 0.0001859619173349596)
(0.01637596476767798 0 0.0001209090670569048)
(0.01656517826497086 0 4.985544533903392e-05)
(0.01677299409689321 0 -2.65725514079454e-05)
(0.01699672655983883 1.623020349475832e-24 -0.0001108662338478056)
(0.01723142307542539 0 -0.0002036670597192888)
(0.01746847513817192 0 -0.0003055763576219653)
(0.01769698385845569 0 -0.0004182861694874551)
(0.01790214108167722 0 -0.0005408392083070113)
(0.0180714619722431 8.760295438271331e-24 -0.0006765446239382615)
(0.01818827475512787 0 -0.0008225828974498168)
(0.01824188634211237 0 -0.0009810068779577891)
(0.01822957957162913 -1.757109781807772e-23 -0.001150740632519782)
(0.01908414229271343 9.323423562891114e-23 -0.001200586479185905)
(0.01928267500799864 0 -0.001015580833967332)
(0.01948399504480551 5.54106428927228e-23 -0.0008197614451161703)
(0.01969753012378178 0 -0.0006109687000465181)
(0.01993040433982875 0 -0.0003910562371107243)
(0.02017732649160307 2.248989032160799e-23 -0.0001568701721218229)
(0.02042658488549192 -1.410345230839207e-23 9.206429650108258e-05)
(0.02066175766609889 0 0.0003591424633514691)
(0.02086248752995924 -9.276941298422821e-23 0.000640822817646284)
(0.0210040166104689 1.190092793013874e-22 0.0009405474182554101)
(0.02106381223375088 -3.013009133327951e-22 0.001255805323977944)
(0.02103372539448203 0 0.001581941342778604)
(0.0209146340809849 4.579677635533438e-22 0.001920683378765836)
(0.02071705638670062 0 0.002272597788245531)
(0.02046567118748753 0 0.002635323740256446)
(0.02018155937450697 0 0.003021254658981778)
(0.01988505025142353 8.596190050375078e-22 0.003430897053014929)
(0.01958659805674731 0 0.003877733710298703)
(0.01928471705172884 -1.101275185543015e-21 0.004369217218739109)
(0.01896809679617202 0 0.004913711824004624)
(0.01860238498094766 0 0.005526095872355571)
(0.01813899271206068 -1.485281018187879e-21 0.006205702201427547)
(0.01750357607047932 0 0.006953900692197213)
(0.01659122772013134 0 0.007749129885504654)
(0.01524896477920759 0 0.008532486135886952)
(0.01325383278551326 1.47913249018904e-21 0.009143366374820086)
(0.01034096615997704 0 0.009200342495345359)
(0.006532025679614696 0 0.008093446213979954)
(0.002790369930737177 0 0.005571719391858036)
(0.0005290216683054669 0 0.002466327113306252)
(0.00685231766694449 3.61686174428494e-22 -0.001459489027677187)
(0.008843901252504718 -3.618365110643247e-22 -0.001847121282836401)
(0.009802004603821001 0 -0.0020081748034992)
(0.01055138166548593 0 -0.002121912726950732)
(0.01119762346882736 0 -0.002210508137097686)
(0.01179691661822656 0 -0.002286494646710963)
(0.01236830391797219 3.263683904196459e-22 -0.002354681986131681)
(0.01290490079202408 -3.266786499718903e-22 -0.002412386493709408)
(0.01338060220296148 0 -0.002456561916891418)
(0.01376820414914196 3.258025305053297e-22 -0.002481594016396137)
(0.01406092960972383 0 -0.002487476401255239)
(0.01427546279092524 -3.225582097245202e-22 -0.002477192633667144)
(0.01444146968116899 0 -0.002456627651621936)
(0.01458711017553819 3.1848840737009e-22 -0.002430123421195989)
(0.01473249644127932 3.166587883814926e-22 -0.002401306297406948)
(0.01489040075774682 0 -0.00237196009259354)
(0.01506641061740862 0 -0.002340843770223477)
(0.01526344264544761 0 -0.002309195206243414)
(0.01548556982512201 3.13433499855559e-22 -0.00227636579119349)
(0.01573496776539447 0 -0.002241003246237421)
(0.01601248689197958 0 -0.00220314136603111)
(0.01631844170274953 3.166815141146817e-22 -0.002160982050867623)
(0.01665096287568344 0 -0.002113226423763642)
(0.01700377524689606 0 -0.002055836566180635)
(0.01736489851579215 -1.637988967467678e-22 -0.001988550889612838)
(0.01772545448910279 1.659195999973174e-22 -0.001907015249390169)
(0.01806779150436506 0 -0.001807646976547506)
(0.01837697509717656 0 -0.001687652492037958)
(0.01864321560215745 0 -0.00154598107051061)
(0.0188698392658237 0 -0.001380064585201495)
)
;

boundaryField
{
    back
    {
        type            empty;
    }
    front
    {
        type            empty;
    }
    wallFilmFaces_top
    {
        type            slip;
    }
    region0_to_wallFilmRegion_wallFilmFaces
    {
        type            noSlip;
    }
}


// ************************************************************************* //
