/*--------------------------------*- C++ -*----------------------------------*\
| =========                 |                                                 |
| \\      /  F ield         | OpenFOAM: The Open Source CFD Toolbox           |
|  \\    /   O peration     | Version:  v1912                                 |
|   \\  /    A nd           | Website:  www.openfoam.com                      |
|    \\/     M anipulation  |                                                 |
\*---------------------------------------------------------------------------*/
FoamFile
{
    version     2.0;
    format      ascii;
    class       volScalarField;
    location    "0.002";
    object      alphat;
}
// * * * * * * * * * * * * * * * * * * * * * * * * * * * * * * * * * * * * * //

dimensions      [1 -1 -1 0 0 0 0];


internalField   nonuniform List<scalar> 
16000
(
4.216597397640928e-07
2.101847779546009e-05
1.539796164007434e-05
1.995098482709222e-05
2.201455065428423e-05
3.454955877452113e-05
3.77340443151338e-05
4.157367913923114e-05
4.097168395829434e-05
4.092810214731578e-05
4.142715773407773e-05
4.193072079240027e-05
4.271991597872952e-05
4.343894917538101e-05
4.407131479786086e-05
4.46360074887036e-05
4.512587304675747e-05
4.569678068915224e-05
4.639519695324933e-05
4.732778832001617e-05
4.850037624198914e-05
4.989622190708155e-05
5.151535732898972e-05
5.328948133285594e-05
5.523902919200841e-05
5.736254302635853e-05
5.971992198271219e-05
6.238867210807941e-05
6.54328061020326e-05
6.895957679342405e-05
7.303912736863345e-05
7.776828432950508e-05
8.326192218926186e-05
8.961164799883662e-05
9.697924112562829e-05
0.0001055185665809716
0.0001154247711553541
0.0001269411549643738
0.0001403315288470683
0.0001559112369838941
0.0001740413352623476
0.0001950758786667628
0.0002194287788574406
0.0002474715486478866
0.0002795036789763532
0.0003154186259879334
0.0003541923055729686
0.0003925320740277297
0.0004239941140073476
0.0004408390116216796
0.0004460718012586415
0.0004642307265952705
0.0005465639510793303
0.0007982829460636809
0.0009174250179006115
0.0005670140038685277
0.0004359059055773531
0.0004377334256784898
0.0005481125476377001
0.0008314341521544852
0.001359275276654019
0.001355214149843298
0.001352917111410149
0.001352030655769851
0.001351747029590233
0.001351661311359169
0.001351637552853529
0.001351631632599538
0.001351630319490859
0.001351630060242449
0.001351630017291989
0.001351630011501013
0.001351630012039587
0.001351630012667058
0.001351630015228087
0.001351630018787963
0.001351630019107015
0.001351630023092429
0.001351630443110852
0.001351640239461959
4.268512186269667e-07
1.915517097150847e-05
1.432310309618088e-05
1.781880034696783e-05
1.908883918602055e-05
2.974232402900635e-05
3.34136503255467e-05
3.893603134755658e-05
3.798868759770821e-05
3.825300471327717e-05
3.852428606974717e-05
3.909268465619622e-05
3.979973427503136e-05
4.047387310228058e-05
4.102219155052869e-05
4.149382904892208e-05
4.188666247490815e-05
4.236702710398109e-05
4.298431042937611e-05
4.384974440653193e-05
4.496334153037019e-05
4.631278401760671e-05
4.788448497963998e-05
4.961429455163518e-05
5.150429308465558e-05
5.356130705674957e-05
5.582355460895407e-05
5.837363000449254e-05
6.126404006690162e-05
6.460109688347303e-05
6.845295815239926e-05
7.290664620349342e-05
7.808153853717331e-05
8.405091337969052e-05
9.099541460332578e-05
9.902959818489912e-05
0.0001083782385561324
0.0001192449185011365
0.0001319124536926442
0.0001467066684661834
0.0001639709441296402
0.0001840893088414573
0.0002074774715006909
0.0002345366937684277
0.0002656071126537729
0.0003007678474671541
0.0003393986539530731
0.0003791210793919565
0.0004141161020938734
0.0004351472532802104
0.0004399543345235374
0.0004488131157397739
0.0005091027723123047
0.0007195310511959474
0.0009408050775768728
0.0005821504974320739
0.0004259321480486218
0.0004135951958167643
0.000505726502132804
0.000754039778943468
0.001341873722435982
0.001355654825948135
0.001353108368241791
0.001352084842690716
0.001351761668960404
0.001351664947060858
0.001351638351050844
0.00135163178232487
0.001351630341441575
0.001351630063975256
0.001351630017907573
0.001351630010706158
0.001351630010814422
0.001351630012198881
0.001351630016573682
0.001351630020044007
0.001351630016469184
0.001351630048507805
0.001351630646065889
0.001351644725133577
4.295502133176436e-07
1.737734832150662e-05
1.343650021313976e-05
1.600311225536505e-05
1.701394030694775e-05
2.505780816109478e-05
2.949766063646724e-05
3.582855084011303e-05
3.521668449913994e-05
3.568813722673012e-05
3.58259144824135e-05
3.64140404452763e-05
3.703683763548174e-05
3.764852292842578e-05
3.811335684829866e-05
3.850751082301761e-05
3.88345893606953e-05
3.9260633254699e-05
3.983715187416794e-05
4.066669021762347e-05
4.17472418440233e-05
4.306338899895162e-05
4.459240139783636e-05
4.627446446778528e-05
4.810640080854204e-05
5.009447295951971e-05
5.227453923034325e-05
5.471772982975768e-05
5.748393165870615e-05
6.065754545599148e-05
6.432152027454251e-05
6.854618447870009e-05
7.345834861565098e-05
7.911821171477747e-05
8.572088472995457e-05
9.335749416100908e-05
0.0001022799402816141
0.0001126816718919788
0.0001248624859221776
0.0001391300679698771
0.00015584371417626
0.0001754092275873035
0.0001982745669141
0.0002248621467847676
0.000255571077886614
0.0002906095126875591
0.0003296514315515474
0.0003709693905480693
0.0004095035816764468
0.0004352803233980487
0.0004415441437242902
0.0004446440535304486
0.0004912614878585389
0.0006805790088194819
0.0009884967898987794
0.0006015285169675082
0.0004170845127096694
0.0003923160515843961
0.0004696748634493504
0.000690162419194456
0.001216606517499861
0.001356008570138101
0.001353271433598291
0.001352128985990319
0.001351773079664484
0.001351667624189791
0.001351638901377877
0.001351631876754258
0.001351630354055867
0.001351630065413609
0.001351630018076547
0.001351630010484763
0.001351630010712513
0.00135163001224689
0.001351630016886642
0.001351630020505742
0.001351630018427617
0.001351630064830132
0.001351631008214792
0.001351649064062352
4.29462765935272e-07
1.587106705854817e-05
1.272243339107935e-05
1.451099815375256e-05
1.543874338985576e-05
2.134084699325762e-05
2.622756065133833e-05
3.234647871201008e-05
3.274078835202384e-05
3.320261203689091e-05
3.333815292934242e-05
3.386882252900181e-05
3.440218036523689e-05
3.492474274687545e-05
3.530799745507904e-05
3.563516267654228e-05
3.592560434704452e-05
3.632811526891337e-05
3.689443842257435e-05
3.771069526480442e-05
3.877040237473542e-05
4.005737526491532e-05
4.154406313796309e-05
4.317924497186829e-05
4.495758021864312e-05
4.688487028027873e-05
4.8994872897895e-05
5.135460536878984e-05
5.401945329084241e-05
5.70760725894356e-05
6.059324062227674e-05
6.465626042333955e-05
6.936892967375304e-05
7.481483368022198e-05
8.115063432829755e-05
8.847819116776215e-05
9.704031895121316e-05
0.0001070220809480481
0.0001187570323932818
0.000132517744044022
0.0001486813725954057
0.0001676789584086709
0.0001900078691728113
0.0002160828480658267
0.0002463786075107946
0.0002811917045597619
0.0003204578273128783
0.000362990201233868
0.0004046558833779585
0.0004355701742664228
0.0004452866319219335
0.0004454575555296616
0.0004823127500384617
0.0006542003078943076
0.001013190331534545
0.0006138809767056938
0.0004080260195885912
0.0003746682561715655
0.0004417572611887129
0.0006428556208037401
0.001126933318947356
0.001356239295759651
0.001353388229890511
0.001352157453309518
0.001351779605429705
0.001351668959895496
0.00135163912958841
0.001351631903633744
0.00135163035405813
0.001351630063033604
0.001351630015132389
0.00135163000879143
0.001351630009554306
0.001351630013781172
0.001351630017821977
0.00135163002133863
0.00135163002011664
0.001351630091778177
0.001351631414876634
0.001351653883438481
4.264378133854504e-07
1.472020336299187e-05
1.211674771551215e-05
1.327859594534808e-05
1.423442169981646e-05
1.850826124220235e-05
2.364168585832543e-05
2.885342940055494e-05
3.051922336356234e-05
3.077486723956242e-05
3.099416123830366e-05
3.140936125655064e-05
3.184933228643525e-05
3.226860359469567e-05
3.25795536934231e-05
3.285837484355033e-05
3.313869235621676e-05
3.354272860990236e-05
3.411869669256657e-05
3.493008713954786e-05
3.596714716175569e-05
3.72126528559236e-05
3.863750586797414e-05
4.020180667602616e-05
4.190134853445683e-05
4.374727434393011e-05
4.576877851357425e-05
4.803010737338292e-05
5.058287889077615e-05
5.350572688538772e-05
5.686475420049509e-05
6.074729416214563e-05
6.525033547415648e-05
7.045956810063167e-05
7.652298155474475e-05
8.356690554659813e-05
9.18060349201923e-05
0.0001014331661803142
0.000112777468468526
0.0001261165353464993
0.000141835708085457
0.0001603798393772291
0.0001822842822242074
0.0002079841510698018
0.000238026697230589
0.0002727964639664688
0.0003124150916538507
0.0003560914432058864
0.0004004658375972143
0.0004359854045743909
0.000449527074499294
0.000448323950479039
0.0004784122471015036
0.0006382135427455947
0.001017852079555999
0.0006134797904167823
0.0003969657439593697
0.0003592948759884569
0.0004201128500238301
0.0006087649478521565
0.001066061440324114
0.001356353128770306
0.001353441455358105
0.00135216798765276
0.001351781111178435
0.001351668953810016
0.001351639018460263
0.001351631854892917
0.001351630339443078
0.001351630060113308
0.001351630014990894
0.001351630009465597
0.001351630010208377
0.001351630013693641
0.001351630017267469
0.001351630018855257
0.001351630024564805
0.001351630130104198
0.001351631924330298
0.001351658667743968
4.162115037358103e-07
1.434909406972049e-05
1.165995110714819e-05
1.231195459809137e-05
1.331726330696381e-05
1.637215405920267e-05
2.169946468260081e-05
2.569332518275683e-05
2.8513856153256e-05
2.841598681966727e-05
2.874661897363391e-05
2.901853953955655e-05
2.936756141267191e-05
2.968981267947484e-05
2.994817508495798e-05
3.020321372266175e-05
3.049847747063504e-05
3.092436859175912e-05
3.152169324723554e-05
3.233360702049055e-05
3.334702607700497e-05
3.454847347587978e-05
3.590916192728342e-05
3.740317597408821e-05
3.902798252807656e-05
4.079790530866297e-05
4.27465447535363e-05
4.492871833116967e-05
4.739655317564535e-05
5.022318461022967e-05
5.346504281437548e-05
5.721018905690047e-05
6.153694510241874e-05
6.654933946843443e-05
7.237938344689712e-05
7.917301778706636e-05
8.712941719567148e-05
9.645924983129199e-05
0.0001074704129272605
0.0001204787660406024
0.0001358641392854822
0.0001540807767967329
0.0001756979361104758
0.0002011664981531055
0.0002311027860744744
0.0002660319394712115
0.0003061300476058871
0.000350908407220078
0.0003974968882701073
0.0004367409492068024
0.000453630088603525
0.0004519738261626797
0.0004783132921272122
0.0006332762651561118
0.001013618975078768
0.000597848782096042
0.0003830360084578178
0.0003453580616990552
0.000403481646321028
0.0005856066347977824
0.001029320275062935
0.001356361830582972
0.001353438203397435
0.001352160247269415
0.001351777117093787
0.001351667444514764
0.001351638552700602
0.001351631733204457
0.001351630312293901
0.001351630055660194
0.001351630014275929
0.001351630011381555
0.001351630010301612
0.001351630014852681
0.001351630017211216
0.001351630019633422
0.001351630029826211
0.001351630186683665
0.001351632559853847
0.001351663662876533
3.985915881631602e-07
1.568793021258762e-05
1.145240275908919e-05
1.197914317797262e-05
1.260229438629943e-05
1.478457062446109e-05
2.024685026218577e-05
2.302180251452426e-05
2.664752829233464e-05
2.613854824517052e-05
2.65542556682952e-05
2.669026513182849e-05
2.696142522061748e-05
2.720719801215902e-05
2.743767374035777e-05
2.769212266179296e-05
2.80163776241865e-05
2.84719706391559e-05
2.908998237654648e-05
2.98970253505071e-05
3.087817629670504e-05
3.202408842754358e-05
3.330935393319174e-05
3.472176917140732e-05
3.62627432997527e-05
3.794964414008959e-05
3.981767365823782e-05
4.191508885711227e-05
4.429163727309321e-05
4.701309260500488e-05
5.013306654626132e-05
5.374802129859997e-05
5.792087695889016e-05
6.276881911443141e-05
6.841196285851492e-05
7.500681882368768e-05
8.274244583928518e-05
9.183832782316369e-05
0.0001025993432523783
0.0001153561555632667
0.0001304971089836559
0.0001484894406968207
0.0001699253187672771
0.0001952891938972363
0.0002252454838630559
0.0002604216637389175
0.0003010633829471969
0.000346912951954699
0.0003953760841882646
0.0004374807449550233
0.0004569382081743312
0.000455555852187486
0.0004813642198115419
0.0006396996433422478
0.001002655605706191
0.0005675226357195053
0.0003663043203941528
0.0003325650466752652
0.0003911860893117243
0.0005720422641452429
0.001014086970144421
0.001356244453683713
0.001353366604216411
0.001352133246831559
0.001351767914442876
0.001351664618085686
0.001351637785407721
0.001351631550829978
0.001351630272273326
0.001351630046368447
0.001351630011991877
0.001351630011497131
0.001351630012148604
0.001351630016414925
0.001351630018547753
0.001351630020426298
0.001351630035863802
0.001351630260786378
0.001351633333984309
0.001351668820139431
3.787056484033171e-07
1.849234659204275e-05
1.132477009301877e-05
1.258166716632256e-05
1.214283404703163e-05
1.376553589924768e-05
1.923320546321597e-05
2.086217788995274e-05
2.486743242839021e-05
2.397548906381419e-05
2.442109065068932e-05
2.444687599743009e-05
2.466087175586835e-05
2.485429585855987e-05
2.507912081161115e-05
2.534755451841423e-05
2.570548256440402e-05
2.618909270665624e-05
2.682014712309235e-05
2.761653638246409e-05
2.855923477763675e-05
2.964774332436267e-05
3.085802038115748e-05
3.219038848858127e-05
3.365137730529866e-05
3.526181884627742e-05
3.705776400460994e-05
3.907923265821771e-05
4.137823584064576e-05
4.401078142526986e-05
4.703451423416016e-05
5.054024756955034e-05
5.459417294489619e-05
5.931459164442106e-05
6.481573607681423e-05
7.125852869789031e-05
7.882937699071028e-05
8.775486191471446e-05
9.834002654591394e-05
0.0001109258882646851
0.0001259093742892078
0.0001437708593403701
0.000165124760264167
0.0001904864155951512
0.000220563319433003
0.0002560481939005684
0.0002972519834669186
0.0003440512590498395
0.0003940054010391328
0.0004381724928442694
0.0004593746352770332
0.0004589379705325217
0.0004876614040979226
0.0006584164378399355
0.0009762334079164436
0.0005256332846029224
0.0003475143083180961
0.0003209228535776162
0.0003828689406100326
0.0005674493528629994
0.001019513871253604
0.001356014411632355
0.001353237658222038
0.001352090407004878
0.00135175449585694
0.001351660761750045
0.001351636792936843
0.00135163132529443
0.001351630227926175
0.001351630038699094
0.00135163001129431
0.001351630012233489
0.001351630015324326
0.001351630015588869
0.001351630020400415
0.001351630019751791
0.001351630041735858
0.001351630360651429
0.001351634272597172
0.001351674161963836
3.593423215314601e-07
2.000471516314625e-05
1.122490473681899e-05
1.354391843416174e-05
1.186333718851257e-05
1.332260879243851e-05
1.860593333645017e-05
1.919349052868533e-05
2.312632424423962e-05
2.196256408860755e-05
2.237877847917589e-05
2.231696167482854e-05
2.249553409689951e-05
2.265015329720919e-05
2.28833122110749e-05
2.316732357586689e-05
2.35530931035428e-05
2.405096412581773e-05
2.468156050488899e-05
2.544529023967266e-05
2.634163719348785e-05
2.736635933338959e-05
2.850709730736206e-05
2.97696404760978e-05
3.116508234787588e-05
3.271397368081381e-05
3.445248735773749e-05
3.641682021524936e-05
3.865779033366441e-05
4.122778985017642e-05
4.418331215717245e-05
4.761221519288406e-05
5.158222454117149e-05
5.62116440663426e-05
6.161214618881338e-05
6.794940385708809e-05
7.540842210044775e-05
8.421969080595637e-05
9.469158532505087e-05
0.0001071763878857509
0.0001220810454178169
0.000139895503990269
0.0001612595070742763
0.0001867133858518617
0.0002170003237330409
0.0002528680051581883
0.0002946674089539857
0.0003423562029229623
0.0003935039783880015
0.0004389317243662956
0.0004609461764523103
0.0004622076200662539
0.0004978556424907665
0.0006910201596202537
0.0009192907327264183
0.0004770780305695534
0.0003277117907094108
0.0003106957716304284
0.000378602471882156
0.0005719578061767611
0.001046387554886326
0.001355689311529597
0.001353064273474887
0.001352035827169036
0.001351738136504922
0.001351656247699052
0.001351635679264151
0.001351631082996745
0.00135163018126986
0.00135163003098219
0.001351630012040013
0.001351630013026029
0.001351630015601203
0.001351630015183243
0.001351630017566916
0.001351630015976586
0.001351630051631038
0.001351630502433307
0.00135163538762558
0.001351679690518892
3.397339200041321e-07
1.928992381415474e-05
1.113366916974173e-05
1.371300667376536e-05
1.163936118780969e-05
1.313226315607478e-05
1.829963474733721e-05
1.789176858021991e-05
2.136445400761894e-05
2.00767049091749e-05
2.042438623360662e-05
2.030032694318252e-05
2.047263349623073e-05
2.059052001863827e-05
2.084377381549865e-05
2.111535123744612e-05
2.152787817069372e-05
2.201374339249083e-05
2.26448031633406e-05
2.337970317313617e-05
2.421416373267242e-05
2.518046741988145e-05
2.62594330823903e-05
2.745782177351759e-05
2.879194039980393e-05
3.028137945523534e-05
3.196168537249875e-05
3.386782518039584e-05
3.604815492944965e-05
3.855190740578212e-05
4.143463135985015e-05
4.478182415213108e-05
4.865958654041432e-05
5.318404055490678e-05
5.846873371629012e-05
6.467956907767292e-05
7.200386801864297e-05
8.116714996400338e-05
9.15715800568434e-05
0.0001040125443571369
0.0001189110017203135
0.0001367482036745479
0.0001582138075518805
0.0001838575514445037
0.0002144558753844448
0.0002507920169436685
0.0002932473970112866
0.0003418417656870546
0.0003939873243012568
0.0004399993112099645
0.0004620052067788788
0.0004659950162136238
0.0005133647613951641
0.0007386985297480381
0.0008241988529828172
0.0004269257335192233
0.0003082008433549275
0.0003023575685634861
0.0003787389365169485
0.0005863344297166619
0.001097201475195452
0.001355272348417753
0.001352863080084871
0.001351974533092541
0.001351720308681537
0.001351651478979824
0.001351634539744162
0.001351630842792808
0.001351630136757647
0.001351630022848387
0.001351630008928422
0.00135163001335254
0.001351630016948283
0.001351630017407598
0.001351630014773447
0.001351630018303087
0.001351630075342521
0.0013516306949169
0.001351636717311325
0.001351685410918864
3.196876308630911e-07
1.91525231785093e-05
1.106113970395847e-05
1.348130282375511e-05
1.145468222785854e-05
1.268334909464078e-05
1.809326258744725e-05
1.677712177454232e-05
1.949520159493239e-05
1.829555029162582e-05
1.851384915104356e-05
1.837295009418417e-05
1.853262458528793e-05
1.862747797366241e-05
1.890359030707505e-05
1.917795937574282e-05
1.95901219224119e-05
2.006969483664848e-05
2.069259041682923e-05
2.139821683347558e-05
2.222424821622113e-05
2.315029349724111e-05
2.418928335531254e-05
2.534692358645548e-05
2.664431325450392e-05
2.809966052330566e-05
2.974947086873938e-05
3.162625680344927e-05
3.377509959036104e-05
3.624419341065167e-05
3.908805089072464e-05
4.238218868918429e-05
4.620019925805984e-05
5.065693551427533e-05
5.587135195478665e-05
6.201560706512677e-05
6.928268344265755e-05
7.793223312967043e-05
8.824018206040551e-05
0.0001006058673819736
0.0001154613510819046
0.0001342989272394679
0.0001559529135463917
0.0001818901757792222
0.0002129082773331469
0.000249811307200509
0.0002929975067338755
0.0003425105419182214
0.000395456192371838
0.0004413811176929451
0.0004627879313179968
0.0004712159148078349
0.0005364535084692867
0.0007974133850129181
0.0007034311759161083
0.0003793267284842664
0.0002901420131413516
0.0002964726888743889
0.0003839274772706968
0.000612095400093288
0.001176591052899704
0.001354804013745781
0.001352651488549007
0.001351911584582707
0.001351702441139875
0.00135164683269294
0.001351633462669436
0.00135163062455223
0.001351630100216055
0.001351630017503431
0.001351630008241582
0.001351630013219642
0.001351630016013047
0.001351630018157767
0.001351630015447963
0.001351630022171756
0.001351630106922009
0.00135163093876648
0.001351638280063606
0.00135169132127999
2.995805696593308e-07
1.921049027989384e-05
1.09606527844075e-05
1.301329153770897e-05
1.134395996329261e-05
1.21329646762322e-05
1.774181302217965e-05
1.561004627532353e-05
1.751379724783828e-05
1.653673682036181e-05
1.66410133611888e-05
1.652998123601137e-05
1.668260309664887e-05
1.676965334885067e-05
1.70514741254062e-05
1.733718126555584e-05
1.778151912653015e-05
1.826677154342602e-05
1.888730257598663e-05
1.957660279821147e-05
2.038116147405368e-05
2.127770333630681e-05
2.228903691464357e-05
2.341809833711488e-05
2.469080019717306e-05
2.612303466620997e-05
2.775008976653404e-05
2.960211326481486e-05
3.172198186457157e-05
3.41562247286748e-05
3.696224028506777e-05
4.021362869981099e-05
4.399397085123701e-05
4.841525327698817e-05
5.360307290751211e-05
5.972623463122711e-05
6.698634540124233e-05
7.563437539817827e-05
8.598230789216607e-05
9.841540212226401e-05
0.0001133928134630588
0.0001314001857852637
0.0001531333728464711
0.0001792637826329837
0.0002123581950293124
0.0002499399497987562
0.0002939528673043684
0.0003443821763697406
0.0003978857495012499
0.0004429576221519446
0.0004635395216709927
0.0004791410773815925
0.0005702169285611888
0.0008446672747312346
0.000581298673659071
0.0003369331916854366
0.0002744903053720459
0.0002937009855890849
0.0003951587914102839
0.0006516474586365478
0.001291763857778826
0.001354322531510793
0.00135244543493236
0.001351851426269338
0.00135168574608947
0.001351642610795061
0.001351632517708246
0.001351630439602074
0.001351630068836218
0.001351630013396596
0.001351630007692105
0.001351630012928422
0.001351630015750126
0.001351630019588228
0.00135163001607691
0.001351630026094065
0.001351630147562391
0.001351631256029644
0.001351640103606675
0.001351697412631398
2.799073873906508e-07
1.933458888133999e-05
1.077363237701864e-05
1.245103779487568e-05
1.130047727591341e-05
1.156291744981695e-05
1.701151320460132e-05
1.439438299093815e-05
1.554948800597111e-05
1.48322761796433e-05
1.4864376896058e-05
1.476790909943896e-05
1.490520076125388e-05
1.504022890455815e-05
1.534152061252945e-05
1.565220354725512e-05
1.610888374292036e-05
1.65981906340764e-05
1.721616736671778e-05
1.789043460214227e-05
1.868114996311696e-05
1.955344228808815e-05
2.054633073793898e-05
2.165174392777911e-05
2.290704839766362e-05
2.431992570829041e-05
2.592938867043204e-05
2.776532711474087e-05
2.986857192007183e-05
3.228804870825247e-05
3.508132021087524e-05
3.832408415930838e-05
4.209879781284179e-05
4.651751753367741e-05
5.171291229830778e-05
5.785040126533441e-05
6.514515477850064e-05
7.385267624857787e-05
8.428718697566813e-05
9.684789232295406e-05
0.0001120067890233622
0.0001302359418112173
0.0001522885021623801
0.0001788703103336085
0.0002107706273951529
0.0002488432420383188
0.0002961040569580807
0.0003474399136940103
0.0004012010464217101
0.0004445923529263168
0.0004647737338830942
0.0004916189311362013
0.0006178216352373734
0.0008292519239396654
0.0004753757665754009
0.0003010189853232306
0.0002619918216070875
0.0002947682773441992
0.0004138015811405169
0.0007086076516360702
0.001357023056546347
0.00135380620348307
0.00135225736478003
0.001351797416963443
0.001351671093855291
0.001351639011061763
0.001351631736925807
0.001351630291599746
0.001351630043351184
0.001351630008682194
0.001351630006982356
0.001351630011698808
0.001351630015496931
0.001351630017940581
0.001351630018466497
0.001351630035782201
0.001351630207971074
0.00135163167102597
0.001351642232005717
0.001351703667572697
2.609463584805646e-07
1.94212702601337e-05
1.047420179437492e-05
1.172832312362542e-05
1.131887213364191e-05
1.09957393110837e-05
1.574465730582406e-05
1.312492216349271e-05
1.369055482191189e-05
1.317254042993057e-05
1.314323095035018e-05
1.312085539705212e-05
1.327833868309828e-05
1.345260838038789e-05
1.376819244782112e-05
1.409998555554862e-05
1.456470561615653e-05
1.505353638422425e-05
1.567174080420865e-05
1.632643808578278e-05
1.711298291152822e-05
1.796378425559188e-05
1.895132041102684e-05
2.004518091960706e-05
2.129786664853152e-05
2.270638306549521e-05
2.427235599236724e-05
2.609534077995595e-05
2.818464717896768e-05
3.058790647886958e-05
3.336058676977314e-05
3.658290647888546e-05
4.033198852484279e-05
4.472772799596612e-05
4.990570943262754e-05
5.60351546179908e-05
6.333487905482443e-05
7.206319639785787e-05
8.254673174355599e-05
9.517921908343838e-05
0.0001104590357430431
0.0001298379501175394
0.000152301472561415
0.0001794391683780478
0.0002119515385748801
0.0002508018502177763
0.0002963914421484256
0.0003482373952154269
0.0004051518285170191
0.0004461296258665309
0.000467414350472734
0.0005112606914926263
0.0006783694336387697
0.0007224533056362186
0.0003912591671144179
0.0002719134697310362
0.0002532163327259646
0.0003005388929198227
0.0004417659336047214
0.0007882206260956645
0.001356091880671679
0.001353318990909241
0.001352095246083421
0.001351751591889661
0.00135165896463882
0.001351636122975218
0.001351631131195738
0.001351630180459602
0.00135163002513795
0.001351630006525954
0.001351630009087582
0.001351630012490221
0.001351630014586418
0.00135163001828356
0.001351630020557464
0.001351630049796964
0.001351630295282054
0.001351632201480951
0.001351644679953815
0.001351710067910062
2.439619594492101e-07
1.93421186046753e-05
1.008983859855941e-05
1.07711920668706e-05
1.139448014343286e-05
1.040476237479237e-05
1.401124956561779e-05
1.182865743524925e-05
1.192930478734617e-05
1.158002974617052e-05
1.156787611772051e-05
1.161041144594781e-05
1.178192439717507e-05
1.199571695453736e-05
1.231712840929851e-05
1.266695562420405e-05
1.313474462696609e-05
1.362252803017665e-05
1.42457507589819e-05
1.489534143135006e-05
1.568872689978783e-05
1.653637750239709e-05
1.751404941210292e-05
1.860293677657791e-05
1.985910561571019e-05
2.12635560988689e-05
2.287243480696896e-05
2.470372360334804e-05
2.680367550885066e-05
2.921801966222833e-05
3.200065443629501e-05
3.524199426475155e-05
3.901173731046354e-05
4.344619440848022e-05
4.867382706892429e-05
5.487974776599882e-05
6.228014499140494e-05
7.11460169950687e-05
8.180573674491823e-05
9.465092623116309e-05
0.0001101839525258811
0.0001289791899080299
0.0001517692026648515
0.0001793679020069424
0.0002142402164387244
0.0002538104792302535
0.0003002398650603453
0.000352776697942677
0.0004052649138362136
0.0004433621532424999
0.0004729167475724328
0.0005411125314616379
0.000731980457717343
0.0005764340794499281
0.0003274628689412362
0.0002493966211413925
0.0002486324362618416
0.0003120735579303172
0.0004817042387109825
0.0008980807363888362
0.001355215777382892
0.0013528566049247
0.00135196284435304
0.001351714732020725
0.001351649476273186
0.001351633942062614
0.001351630692285505
0.001351630104441049
0.001351630014105292
0.001351630005504794
0.00135163001004597
0.001351630012371377
0.001351630014669315
0.001351630018619582
0.001351630023939314
0.001351630068989767
0.001351630416087207
0.001351632870625543
0.001351647484303271
0.001351716580430563
2.287549054995746e-07
1.847303862601994e-05
9.599275102001567e-06
9.676064399349901e-06
1.143927911997566e-05
9.743269776962434e-06
1.205271477864122e-05
1.04126490202234e-05
1.030264537757166e-05
1.011187228849398e-05
1.012400264305809e-05
1.022788981646762e-05
1.039912390264616e-05
1.065862652947012e-05
1.097531643039049e-05
1.135422819411743e-05
1.18253013858466e-05
1.233428365439301e-05
1.296298796338007e-05
1.361644316507672e-05
1.441480604788481e-05
1.526745428386747e-05
1.627397124526106e-05
1.737066095158952e-05
1.864619389918297e-05
2.006129831386698e-05
2.169319257021278e-05
2.353870168392895e-05
2.566229435369802e-05
2.810004982302847e-05
3.091284521021855e-05
3.41914010824959e-05
3.800428464650255e-05
4.250149025694843e-05
4.780169021524712e-05
5.411459078222728e-05
6.164930176519193e-05
7.069315495677446e-05
8.158322889996487e-05
9.471204197655744e-05
0.000110582525958737
0.0001297871275229687
0.0001530637164911668
0.0001812963441130625
0.0002152398589165622
0.0002555485959897837
0.0003052571747836997
0.0003579360220568389
0.0004086823652167778
0.0004446424536143597
0.0004786373149189369
0.0005829233175221924
0.0007231444318685549
0.0004492403595164933
0.0002802695339300575
0.0002330531095514972
0.0002487289513707867
0.0003307323459272459
0.0005372694829208513
0.001049105089467473
0.001354405459063664
0.001352492969770538
0.001351859483442474
0.00135168658068098
0.001351642462225587
0.001351632394130751
0.001351630394423748
0.001351630055321196
0.001351630008379903
0.001351630006459281
0.0013516300100663
0.001351630012341424
0.001351630014196893
0.001351630019377268
0.001351630027823582
0.001351630094298087
0.001351630583069604
0.001351633707940077
0.001351650657162855
0.001351723165442902
2.15101796951458e-07
1.666766804401266e-05
9.025182317560467e-06
8.567963019561805e-06
1.130897605951762e-05
8.962735413424466e-06
1.007823593884715e-05
8.996188587946191e-06
8.844758825844307e-06
8.765524450774285e-06
8.793432081155327e-06
8.962704602081816e-06
9.139897672741475e-06
9.444700667879935e-06
9.771078038636149e-06
1.018716303978773e-05
1.066101056455613e-05
1.119304868403347e-05
1.182041564945017e-05
1.250577177503143e-05
1.33140019223353e-05
1.418561671990086e-05
1.521188097962843e-05
1.632528397077294e-05
1.762750386618862e-05
1.906126450863026e-05
2.072446417973739e-05
2.259472297795209e-05
2.475335478140367e-05
2.716768443558643e-05
3.000490868312399e-05
3.331029643293961e-05
3.715562318794569e-05
4.169650311260216e-05
4.704543770737721e-05
5.343114476098048e-05
6.105606470547282e-05
7.02226309567348e-05
8.127613480047653e-05
9.525118065523415e-05
0.0001115489281250941
0.0001312803147419458
0.0001551163560410988
0.000184035611570041
0.0002187555848676824
0.0002599139378323621
0.0003079375152633897
0.000363564609378216
0.0004118722085543955
0.0004470163343857079
0.0004954567448389909
0.0006241369479660944
0.0006206838172264779
0.0003557805430516379
0.00024608328332363
0.0002224523371840239
0.000254060836940546
0.0003582799761070231
0.0006135169675176522
0.001257103741344603
0.001353698864533161
0.001352217723064269
0.001351782472692881
0.001351666147565036
0.001351637563463371