/*--------------------------------*- C++ -*----------------------------------*\
| =========                 |                                                 |
| \\      /  F ield         | OpenFOAM: The Open Source CFD Toolbox           |
|  \\    /   O peration     | Version:  v1912                                 |
|   \\  /    A nd           | Website:  www.openfoam.com                      |
|    \\/     M anipulation  |                                                 |
\*---------------------------------------------------------------------------*/
FoamFile
{
    version     2.0;
    format      ascii;
    class       volScalarField;
    location    "0.002";
    object      k;
}
// * * * * * * * * * * * * * * * * * * * * * * * * * * * * * * * * * * * * * //

dimensions      [0 2 -2 0 0 0 0];


internalField   nonuniform List<scalar> 
16000
(
0.0522563923523069
0.01121172609988311
0.01051593963193923
0.01040957141642623
0.01034310285982231
0.01031704620905122
0.01029514137734397
0.01028460524143274
0.01027566711851805
0.01026895910199937
0.01026207106980768
0.01025610108899483
0.01025075513532375
0.01024657860810009
0.01024279144696931
0.01024015633723182
0.01023833101338365
0.01023649938186983
0.01023476531468722
0.01023338532892184
0.01023127221961346
0.01022879493272376
0.01022639251847004
0.01022314732319638
0.01022030711706928
0.01021715241826901
0.0102141230841363
0.01021166642173313
0.01020885116993326
0.01020672483120884
0.01020447059525573
0.01020248813395668
0.01020063705601086
0.01019846270809707
0.01019720236991897
0.01019509611913863
0.01019407123155877
0.01019260497682047
0.01019154634985703
0.01019095956604498
0.01019040420379364
0.01018996956057145
0.01018973737368238
0.01018952111328089
0.01018963476680168
0.01019012138432435
0.01019105588766104
0.01019270019916522
0.01019569429543399
0.01020008879613528
0.01020667467335358
0.01021560820783673
0.01022580670213614
0.01023374635020137
0.01023332514200755
0.01021769882757901
0.01018502386659366
0.01014048176977676
0.01009409423089555
0.01005436435179603
0.01002444544986807
0.01000335870738579
0.009988833053702377
0.009983788172617067
0.009982491429766548
0.009982149145123716
0.009982059679255769
0.009982037747811794
0.009982032869718726
0.009982031894272334
0.009982031721931767
0.009982031693393241
0.009982031688842692
0.009982031680138346
0.009982031697264604
0.009982031712536477
0.009982031758464734
0.009982033246533567
0.009982071034724795
0.009982966490687415
0.05359984406232705
0.0114928775200023
0.01067898355461966
0.01052660481594882
0.01041843963599772
0.01037393193647383
0.01034222182834378
0.01032359296934016
0.0103116880916051
0.01029987721278309
0.01029011747919434
0.01028101271053399
0.0102730947894314
0.0102668568911899
0.0102616170367571
0.01025737684176878
0.01025434756900682
0.0102516097316189
0.01024902268690571
0.01024681638094178
0.01024384169474638
0.01024063467012753
0.01023776089562205
0.01023404301793733
0.01023038942309118
0.01022703422874858
0.01022331976992005
0.01022066530631581
0.01021736747654856
0.01021498975558024
0.01021260078270102
0.01021015787483518
0.01020834286945544
0.01020601449097775
0.01020439215852937
0.01020237029554947
0.01020112400676172
0.01019935361534681
0.01019845178969277
0.01019780013373058
0.01019711274700979
0.01019659625233098
0.01019621001503155
0.01019595619175358
0.010195978540621
0.010196167345963
0.01019686081250943
0.01019815154677692
0.01020054103830714
0.01020464927418885
0.01021070656259089
0.01021952668360102
0.01023038976224413
0.01024006777659931
0.01024238079192764
0.01022921696554746
0.01019778634373406
0.01015256164383658
0.0101038212644531
0.0100612617387348
0.01002872860463603
0.01000602286448285
0.009990099458848821
0.00998406923362073
0.009982554885951893
0.009982163563117078
0.009982062743115737
0.009982038325169649
0.00998203295954418
0.009982031908134134
0.009982031725662966
0.009982031696723622
0.009982031690609322
0.00998203168082914
0.009982031710334122
0.009982031726355685
0.0099820318122985
0.009982034359472727
0.009982091579423971
0.009983385245815707
0.05453049467647133
0.01183831221131938
0.01089490116878948
0.01069181007526317
0.0105214802054258
0.010448762029678
0.0104032976764111
0.01037208730708364
0.01035573983690781
0.0103364723600438
0.01032200399788097
0.01030873553642735
0.01029760231914587
0.01028849875774696
0.01028100658569171
0.01027501188268343
0.01027041022089823
0.01026628822005624
0.0102624420371572
0.01025892961210153
0.01025501793888364
0.01025111584122177
0.01024719203012625
0.01024278817665981
0.01023837594172469
0.01023456263558611
0.01023066866451999
0.01022756491616067
0.01022415192013589
0.01022131388228004
0.01021874091730899
0.0102160873884837
0.01021402571747544
0.01021150814824527
0.01020972583602433
0.01020762586454393
0.01020598617492127
0.01020425205502504
0.01020352770241699
0.01020256979201444
0.01020133280124555
0.01020064169604743
0.01020017710263129
0.0101998345567442
0.01019972923436806
0.01019997675161488
0.01020060790565937
0.01020159115261492
0.01020347087673193
0.01020712917807719
0.01021279249493785
0.01022108890421399
0.01023203792671178
0.0102425542315731
0.01024694791133538
0.01023613223652643
0.01020604348915462
0.01016077687052956
0.01011060771093951
0.01006572180019673
0.01003191689176365
0.01000807174161299
0.009991226196376022
0.009984306626097575
0.009982605448336488
0.009982174029343177
0.009982064739153557
0.009982038644517823
0.009982032998969747
0.009982031911809157
0.009982031725276268
0.009982031695207727
0.009982031690404528
0.009982031680928188
0.009982031713590215
0.009982031730790016
0.009982031957034935
0.009982036234658414
0.009982121441389262
0.009983784294707877
0.05499747350356132
0.01225467257699313
0.01115004577598762
0.0109158953642219
0.01065849698269318
0.01055226024072306
0.010480434257152
0.01043401646651746
0.01040883111747604
0.01037988042943439
0.01035946924234458
0.01034068982509718
0.01032551766692003
0.01031310171097158
0.01030302192014755
0.01029470138649751
0.01028827370151938
0.01028250336788859
0.01027713847392624
0.01027241186390386
0.01026730208718552
0.01026248005236831
0.01025762980117774
0.01025264702829634
0.01024772485485093
0.01024345759063763
0.01023925088962092
0.01023582098004971
0.01023200403032709
0.01022896662404417
0.01022613481786894
0.01022339516731774
0.01022119982402229
0.01021865288091035
0.01021681941887708
0.01021456734756885
0.01021272826655118
0.01021105015504994
0.01021026424367355
0.01020887652842208
0.0102075919666627
0.01020694812968436
0.0102064210788394
0.01020592002690144
0.01020563652789169
0.01020568988753962
0.01020631723197118
0.01020728416610726
0.01020857611175235
0.01021157675314958
0.01021709782137464
0.01022443472929291
0.01023557687708746
0.0102465143365066
0.01025190485982202
0.01024270495003001
0.01021363901832975
0.01016770939982287
0.01011604792112197
0.01006956391487021
0.01003402744886242
0.01000923853911452
0.009992066679655815
0.009984460597782539
0.009982632652094908
0.009982178760182406
0.009982065538613133
0.009982038748908805
0.00998203300347549
0.009982031904169656
0.009982031715627112
0.009982031683628583
0.00998203168113336
0.00998203168818201
0.009982031715183533
0.009982031738210681
0.00998203206806344
0.009982038636147071
0.009982159470716852
0.009984230574399473
0.05497622013781133
0.01276098054473836
0.01141881129754058
0.01117734255641987
0.0108244795924842
0.01068389886201558
0.01057040720185721
0.01050687062760034
0.01046868162253662
0.01042776568980441
0.01039966093362846
0.0103743282807838
0.01035452331981152
0.01033810123298098
0.0103250076224847
0.01031414596201822
0.01030546126996475
0.01029769656932357
0.01029065653305918
0.01028444536436135
0.01027799869828393
0.01027216205549894
0.01026616451357303
0.01026063371137372
0.01025505082149522
0.01025043495234954
0.01024578323919132
0.01024195200706881
0.01023800818200515
0.0102346743650314
0.01023163741809699
0.01022879353825858
0.01022636798127161
0.01022370148622932
0.01022164901869738
0.01021942253260242
0.01021742893936406
0.01021571283621429
0.01021481223899685
0.01021327152788864
0.01021198267683241
0.010211374498738
0.01021090027633552
0.01021029570270833
0.01020987792122893
0.01020957754180419
0.01020996730311264
0.01021100856859492
0.01021262688168434
0.01021491413187741
0.01021973858757029
0.01022717026172235
0.01023785145985779
0.01024877157407215
0.01025498715559001
0.01024676019851235
0.0102181502553873
0.01017179201867112
0.01011896086797308
0.01007139544910241
0.01003494529670542
0.01000974377639918
0.00999245232529565
0.009984522610073123
0.009982641070413592
0.009982179344956824
0.009982065253749403
0.009982038600308137
0.009982032960026373
0.009982031897564919
0.009982031717315234
0.009982031683688403
0.009982031686159564
0.009982031688133405
0.009982031715776874
0.009982031746959144
0.00998203230582754
0.009982042244469297
0.009982206999562019
0.009984672632180841
0.05391774698813311
0.01339460095174643
0.01170021731210699
0.01147128018648656
0.01099672162659075
0.01084153462814681
0.0106646445566074
0.0105886785645045
0.01053274857074538
0.01047787967319224
0.01044155241296425
0.01040859411270009
0.01038384832685819
0.01036327660222816
0.01034705498901446
0.01033339641688123
0.01032254602148935
0.01031275848087974
0.0103039743818428
0.01029637041785392
0.01028856421594122
0.01028192514247793
0.0102750277450726
0.01026913581946225
0.01026305433841761
0.01025802208084128
0.01025320138854359
0.01024912155421165
0.01024513334405493
0.01024172099582266
0.01023858179844054
0.01023564736325163
0.01023303647476853
0.01023025165990515
0.01022800948842511
0.01022564087405002
0.01022372677390149
0.01022171620441639
0.01022057534651217
0.01021938160609286
0.01021795473709689
0.01021702299552704
0.01021635176086846
0.01021564036167333
0.01021509495827019
0.0102148720348788
0.01021477427195943
0.01021531583700014
0.0102165311767239
0.0102191034622244
0.01022324408249788
0.01022995882673707
0.01024012438491546
0.01025111126474415
0.01025752761290116
0.01024962886558925
0.01022080293458722
0.0101737529303236
0.01012018894776305
0.01007205049929052
0.01003519580709345
0.01000982133865664
0.009992504737227443
0.009984496386192362
0.009982625943279333
0.009982173726495385
0.009982063540676909
0.00998203815575364
0.009982032862388352
0.009982031879707833
0.00998203171544859
0.009982031685254479
0.009982031685575833
0.009982031688125819
0.00998203171647092
0.009982031765979777
0.009982032661509809
0.00998204726395277
0.009982265632679973
0.009985134111602888
0.05180561932897169
0.01421069590064048
0.01190058518907311
0.01178563419466321
0.0111499623575181
0.0110054140604421
0.0107514424479705
0.01067369384337209
0.01059647573068415
0.01052625587616529
0.01048170126473892
0.01044063723136889
0.01041132132416404
0.01038638993157943
0.01036724615099392
0.01035085297943229
0.01033768299565444
0.01032580736217395
0.01031538139265561
0.01030633586993648
0.01029742758379268
0.01028981559100054
0.01028208770840856
0.01027570932306202
0.0102692816941243
0.01026402820539203
0.01025903201085385
0.01025479471938287
0.01025085096211367
0.01024732739819733
0.01024399920073001
0.01024108689446361
0.01023829509366338
0.01023558321703565
0.01023317285937082
0.01023077516381168
0.01022873518614256
0.01022681077687341
0.01022559111584548
0.01022424665555645
0.0102229172109168
0.01022192670179073
0.01022103252567516
0.01022026586722158
0.01021969562574188
0.0102193628240757
0.01021935568952773
0.01021974416396712
0.01022070673206278
0.01022296935704535
0.01022709560364064
0.01023358881473316
0.01024358006484324
0.01025429996174333
0.01026034187932292
0.01025157241647631
0.01022217331179529
0.01017452511183685
0.01012009946746319
0.01007130080280607
0.01003443766043322
0.01000919831350193
0.009992060720673886
0.009984362356574418
0.009982587636451058
0.009982162997396373
0.009982060715891555
0.009982037484989395
0.009982032717466975
0.009982031845567896
0.009982031704866678
0.009982031687263478
0.009982031678696102
0.009982031691547781
0.009982031717511849
0.009982031802661336
0.009982033217569989
0.009982054244588083
0.009982337213399584
0.009985611136858268
0.04932221795151207
0.01526028704488666
0.01205396991775555
0.01211138134392496
0.01122953661265118
0.01116530483764585
0.01082782218544649
0.01075581565037737
0.0106558984022312
0.01057012886858839
0.01051830207056673
0.01046880502233933
0.01043588679415393
0.01040681633669742
0.01038526017580786
0.0103663653695486
0.01035131514912211
0.010337590325619
0.01032587823561658
0.01031556864358477
0.01030590168992286
0.0102976480941434
0.01028952630115009
0.01028287656104085
0.01027629933426838
0.0102709626573282
0.01026596381243453
0.01026153275102231
0.01025769898393294
0.01025408006360049
0.01025070197147155
0.01024769775121448
0.01024481875893331
0.01024209656149394
0.01023957009166694
0.0102371917287332
0.01023507799346984
0.01023296357975322
0.01023155493662531
0.01023025697556296
0.01022892778319132
0.01022780219667087
0.01022685137821129
0.01022581902025819
0.01022506130294996
0.01022450313341358
0.01022442556830206
0.01022468690214594
0.01022564577076877
0.01022774486203073
0.01023134188796518
0.01023733966082191
0.01024686835946784
0.01025729586035806
0.01026259490256956
0.01025280430962924
0.01022158227152084
0.0101723869746177
0.0101174850268779
0.01006879296290356
0.01003267703311581
0.01000798420576726
0.00999122429167772
0.009984146111076554
0.009982531438385921
0.009982148303241772
0.009982057061637316
0.009982036661920343
0.009982032559029304
0.009982031822938039
0.0099820317038925
0.009982031687488947
0.009982031688147808
0.009982031691709635
0.009982031720756871
0.009982031865783164
0.009982034063273732
0.009982063774242461
0.009982423534653204
0.009986104815804805
0.04684600151215548
0.01653359292761723
0.01219153733457049
0.01242757076056077
0.01127707563732457
0.01128888431073593
0.01087393571753195
0.01081928068623688
0.01069769325749466
0.01060518904782502
0.01054940303158286
0.01049176412291549
0.01045617925633039
0.01042295297293677
0.01039955373706238
0.0103783775929898
0.01036192282202335
0.01034660860093983
0.01033400654084684
0.01032265920059512
0.01031253041785885
0.0103037431817738
0.01029556278177809
0.01028868736971728
0.01028224495705047
0.01027677584100577
0.01027194226313593
0.01026746900883397
0.01026381754596637
0.01026024044872351
0.01025684325390023
0.01025386936227301
0.01025081073015368
0.01024809792181803
0.01024530200195216
0.01024305068204744
0.01024088354402375
0.01023868774527491
0.0102371305865371
0.01023585696719481
0.01023443036006749
0.01023318708121991
0.01023207872805682
0.01023092992969466
0.01022998019603637
0.01022916993523952
0.01022871220539754
0.01022874383778924
0.01022961177893949
0.01023169205944427
0.01023511682982312
0.01024118634851524
0.01025029436301424
0.01026003465234125
0.01026401524604525
0.01025214922802658
0.01021874796659726
0.01016831210460304
0.01011311468187182
0.01006503050595423
0.01002999347046608
0.01000627667343611
0.009990095594858155
0.009983871402934021
0.009982463146427974
0.009982131104924897
0.009982052949817749
0.009982035775016829
0.009982032387514311
0.009982031794150957
0.00998203170125201
0.009982031682282282
0.009982031690767596
0.00998203169117113
0.009982031727817196
0.009982031973058379
0.00998203533331422
0.009982076630475996
0.009982526791593522
0.009986615999188776
0.04429187870993322
0.01784682489933201
0.01234042594796571
0.01264705302172669
0.01131428266068268
0.01135079342468197
0.01090330234495544
0.01084584189647757
0.01071571535813134
0.01062094281126433
0.0105645285327159
0.01050513082794485
0.01047077216515892
0.01043378056824175
0.010410291406892
0.01038696051277605
0.01036994908304468
0.01035342430301342
0.01034068003857885
0.01032869864588927
0.01031866927061585
0.01030970936618781
0.01030169487765098
0.0102948215498951
0.0102886484382961
0.01028314303359805
0.01027842012277466
0.01027394505016365
0.01027031742025026
0.01026658283595502
0.01026312632223064
0.01026007038284285
0.01025688577779246
0.0102540698234732
0.01025111167865879
0.01024863364262425
0.01024645461495378
0.01024406754119898
0.0102421358910346
0.01024075395805116
0.01023938013331412
0.01023776088272572
0.01023623085485205
0.01023503379230899
0.01023398631923833
0.01023321173724204
0.01023284272152313
0.01023302622514292
0.0102338656887634
0.01023560474287618
0.01023891110626128
0.01024505060724758
0.0102537891833464
0.0102627012997642
0.01026491672768912
0.01025011965462072
0.01021400376285062
0.01016204093528759
0.01010686119210147
0.01006010173313683
0.01002631399321827
0.01000393169203151
0.009988803426612819
0.00998356752515287
0.009982389403006645
0.009982112981779851
0.009982048731104526
0.009982034885327659
0.009982032215311179
0.009982031759403648
0.009982031690820696
0.009982031688992539
0.009982031693435351
0.009982031707979613
0.009982031738076389
0.009982032150065835
0.009982037215037176
0.009982093773352825
0.009982649327982148
0.009987144854992016
0.04164413799758537
0.01905645792319928
0.01248407047833428
0.01276960114705484
0.01134211154992809
0.0113832365765197
0.01092566489104261
0.01085639925112762
0.01072389551719835
0.01062757874612354
0.0105699030162163
0.01051025230737514
0.01047649148148252
0.01043880232214323
0.010416316305742
0.01039161947359111
0.01037502576928685
0.01035795410021293
0.01034557263939902
0.0103334299449398
0.01032371816305382
0.01031477220909276
0.01030715432174291
0.01030028006262896
0.01029441358080247
0.0102887833582246
0.01028419349512646
0.01027973809881496
0.01027594106031578
0.01027222954200671
0.01026870155005973
0.01026539875903269
0.01026216114241277
0.01025931182884738
0.01025628128306459
0.01025366864236116
0.01025141125281588
0.01024912606738612
0.01024698202309711
0.01024532254595147
0.01024390668463919
0.010242388132999
0.01024090952527442
0.0102396273127806
0.01023831323701275
0.01023730273743682
0.01023675559620034
0.01023690100843511
0.01023771542586972
0.0102393423898542
0.01024279911046323
0.01024893120393446
0.01025739869384896
0.01026509800187692
0.01026469146690752
0.01024650278551659
0.01020724394518378
0.01015361194330491
0.01009888455530606
0.0100542283004004
0.01002231013582512
0.01000126344951583
0.009987477386759903
0.009983262531324449
0.009982316410564716
0.009982095380800979
0.009982044734691078
0.009982034068642887
0.009982032071103075
0.009982031740614183
0.009982031691058156
0.00998203168927243
0.009982031695564499
0.009982031712845901
0.009982031763298631
0.009982032436513162
0.009982039968047234
0.009982116388266534
0.009982793690035361
0.009987691191516461
0.03895498444571343
0.0201647338238562
0.01260787009603751
0.01284388930743991
0.01135990668855295
0.01139930562729954
0.01094496921196145
0.01085942648796995
0.01072596224141887
0.01062999391283813
0.01057126309271738
0.0105121954477572
0.01047834509882395
0.01044135512234865
0.01041969257266445
0.01039472250675585
0.01037899044596782
0.01036198413177005
0.01035031052276803
0.01033812129708847
0.01032886400383857
0.01031988195405233
0.01031276309567672
0.01030594432162065
0.01030030285755015
0.01029459084499658
0.01029002543036413
0.01028578759669785
0.0102816686663162
0.01027784703652252
0.01027436123702364
0.01027089390201933
0.01026758162233209
0.01026471682858902
0.01026175001688783
0.01025893184804285
0.01025667655191362
0.01025449045575347
0.01025221482778967
0.01025022004994877
0.01024843518198232
0.01024661493641817
0.01024489773649165
0.01024331696599589
0.01024202492517943
0.01024110550332457
0.01024068754839222
0.01024058619582609
0.01024127867018597
0.01024296780477782
0.01024655759551884
0.01025271692670694
0.01026068713318757
0.01026708889138412
0.01026347774669464
0.01024102735321715
0.01019809408336444
0.01014328601648694
0.01008994737073186
0.01004730942663698
0.01001789716286037
0.009998555668535344
0.009986229443484653
0.009982979246449973
0.009982249157226845
0.009982079433979697
0.009982041218937294
0.009982033375129819
0.009982031948905609
0.009982031722325355
0.009982031689430571
0.00998203168966786
0.009982031696676767
0.009982031715849176
0.009982031808955924
0.009982032892891185
0.009982043947266719
0.009982145919469866
0.009982962577310871
0.009988254301331998
0.03629147697497365
0.02114196225670276
0.01270148125663372
0.01288912086259425
0.01136876175239126
0.0113832866715641
0.01096118350537625
0.01085177572331426
0.01072061215862173
0.01062818802344564
0.0105688341711483
0.01051219864566171
0.01047828625723528
0.01044264993463154
0.01042140636347408
0.01039710728033989
0.01038239991021572
0.01036542526721775
0.01035464545433889
0.01034240064691703
0.01033375786941039
0.01032474130013359
0.01031818972801918
0.01031142031615304
0.01030605945199415
0.01030045171327387
0.01029575883418226
0.01029176980832225
0.01028741158736619
0.0102834574313885
0.01027996932323954
0.01027652221367872
0.01027303703841282
0.01026992725812245
0.01026699087379834
0.01026399567087138
0.01026145611180386
0.01025910052059444
0.01025669652531243
0.01025437010501272
0.0102524039936259
0.0102505919687415
0.01024874210739598
0.01024708096341635
0.01024574889313864
0.01024480394482495
0.01024430502552617
0.010244216038584
0.01024476193093344
0.01024664801072023
0.01025015246736691
0.01025629381859706
0.01026361500352387
0.01026801483362233
0.01026034086504077
0.01023315147908683
0.01018681579822554
0.01013147527756593
0.01007983249767368
0.01004017546587433
0.0100129868262279
0.009995304492138058
0.009985137968979185
0.009982732951184164
0.009982190976421864
0.009982065870000657
0.009982038303485036
0.009982032819272737
0.009982031855792666
0.009982031702963358
0.009982031681788364
0.009982031682237578
0.009982031696317718
0.009982031723448324
0.00998203188883647
0.009982033609953972
0.009982049630523689
0.009982184098832815
0.009983158763592402
0.009988832828116077
0.0336924491917323
0.02192505519179009
0.01275647302567188
0.01286534687405888
0.01137017113562079
0.01132746872391615
0.01096799688659958
0.01083092579752178
0.01070647686247912
0.01062083691964367
0.01056168227295248
0.01051030217017096
0.01047622974848183
0.01044314615269398
0.0104220494439795
0.01039913511031629
0.01038547514284295
0.01036871057432861
0.01035899444032756
0.01034658310083104
0.01033886216548338
0.01032973402570581
0.0103238419654119
0.0103171597218277
0.01031192633116523
0.01030650970543098
0.01030156998159568
0.01029780188294322
0.01029323254118986
0.01028904725666323
0.01028533583163327
0.01028175845404614
0.01027819085208175
0.01027470884328249
0.01027149684412951
0.01026858344425804
0.01026579276096409
0.01026343884900714
0.010261181601883
0.01025866784583539
0.0102563360410657
0.01025427324314795
0.01025229033813846
0.01025057049361264
0.01024915799782073
0.01024807836810208
0.01024735504606728
0.01024727212189891
0.0102479620576099
0.0102498252182902
0.01025367140888927
0.01025982288507225
0.01026607603238414
0.010267764515025
0.01025527255388596
0.01022306045974061
0.01017373984850597
0.01011821562975935
0.01006912751726262
0.01003264417437501
0.01000825640219167
0.009992181289322841
0.009984242644018766
0.009982530850560554
0.009982143454793528
0.009982055008566597
0.009982036044278806
0.009982032404054203
0.009982031786660489
0.009982031696764631
0.009982031681083388
0.009982031689853468
0.009982031693881194
0.009982031737583549
0.009982032025736724
0.009982034720383655
0.00998205764853643
0.009982232957975226
0.009983384976543433
0.009989424718249939
0.03131919923496724
0.02241259257162306
0.01276901696769684
0.01266559628981951
0.01136455072120364
0.01125824353861528
0.01095107026352378
0.01080502147087521
0.01068844966263383
0.01060972611887554
0.0105520710778233
0.01050651430120373
0.01047199368745239
0.01044305585410173
0.01042177727665031
0.01040082177822918
0.0103878397051652
0.01037178638543113
0.01036312598683587
0.01035080100560076
0.01034422716393573
0.01033501566766383
0.01032971209574873
0.01032301412002812
0.01031790891379971
0.01031262720231202
0.01030719522606646
0.0103034332821864
0.01029886010686357
0.01029443226853919
0.01029039456031543
0.01028664872590944
0.01028294722565426
0.01027953476385869
0.01027616907072971
0.01027309159898442
0.0102698886234329
0.01026710505977587
0.01026473135418316
0.01026231629902073
0.01025981930811446
0.0102575023267403
0.0102555228988906
0.01025364338364339
0.01025194768425358
0.01025090296175858
0.01025040866114266
0.01025022618943953
0.01025098434525431
0.01025291332211119
0.01025703000259805
0.01026289580332841
0.01026794434868191
0.01026600730935106
0.01024823201451696
0.01021076239076302
0.01015861151633289
0.01010416541700845
0.01005830033356568
0.01002541159878757
0.01000364171147154
0.009988999321391823
0.009983552226425487
0.009982373494191571
0.00998210670148676
0.00998204680227289
0.009982034390029459
0.009982032112069258
0.009982031744131058
0.009982031691915121
0.009982031682662705
0.009982031691021584
0.009982031698611525
0.009982031766917452
0.00998203225302418
0.00998203641556351
0.009982068819000075
0.009982294831713813
0.009983643748312112
0.00999002707453653
0.02914793384505876
0.02252743248088318
0.01272085125472361
0.01241161799154311
0.01135131477661091
0.01118240602581756
0.01090230814473359
0.01077707529868916
0.01066841909439824
0.01059697516202358
0.01054049622782095
0.01050200522124132
0.01046664492653118
0.01044272527853906
0.01042071588987604
0.01040291618853751
0.01039004884573252
0.01037594672231467
0.01036764925873846
0.010356068765719
0.01035019241664586
0.01034095188054548
0.01033605974503389
0.01032910675441196
0.01032403098644215
0.01031877055105133
0.01031301453369182
0.0103088617815405
0.0103042740200574
0.01029975486445092
0.01029546938607672
0.01029138399310905
0.01028735879009074
0.0102836886137349
0.01028008183550355
0.01027688732341
0.01027368404259157
0.0102705662595346
0.01026785534702231
0.01026531952071779
0.01026269224190559
0.01026033447897405
0.01025810967602363
0.01025608084690327
0.01025464319691294
0.01025358905365575
0.01025299710511036
0.0102528473595513
0.0102535401004316
0.01025582567232856
0.01026018478407608
0.0102653834857421
0.01026856555075992
0.01026200454945377
0.01023825240112619
0.01019593195485626
0.01014247997663559
0.01008965648729835
0.01004764849120316
0.01001811303555592
0.00999903579602489
0.009986659338969701
0.009983041796003785
0.009982256834521358
0.009982079746215617
0.009982040958800927
0.009982033256949135
0.00998203191822945
0.009982031714144447
0.009982031683886805
0.009982031686320622
0.009982031690941208
0.009982031700597778
0.00998203181742854
0.009982032627154601
0.009982038963031504
0.009982084172380943
0.009982372304884687
0.009983937171103432
0.009990636121379712
0.02714519583026529
0.02197235922977621
0.0126119210995785
0.01223897143461077
0.01132903439890956
0.01110804398412531
0.01086828896842261
0.01074448933257224
0.01064643476982401
0.01058266431886349
0.01052895116208395
0.0104966422968223
0.01046177176226533
0.01044297933361298
0.0104206126368527
0.01040673697079609
0.010393013292064
0.01038163376976923
0.01037265031679625
0.01036229347943202
0.01035629808595921
0.01034723490895974
0.0103424154805209
0.01033512734616674
0.01033006355778464
0.01032466189388201
0.01031880681119132
0.01031392546012201
0.01030912110410038
0.01030440649155684
0.01029983035081002
0.01029555139597945
0.01029141644099561
0.01028747566461436
0.01028378739949944
0.01028036658187416
0.01027717768977066
0.01027381109193998
0.01027062360981716
0.01026761038246809
0.0102650503865579
0.01026258915803232
0.01026027652773152
0.01025837854175503
0.01025684495218969
0.01025583367384474
0.01025520199558511
0.01025501059373199
0.01025616075183142
0.01025861697286915
0.01026278968706178
0.01026723677936228
0.01026768147234919
0.01025596097687927
0.01022623070035265
0.01017940894495231
0.01012504722031548
0.01007544500636037
0.0100372187553863
0.01001142740410747
0.00999481719662775
0.009985002955727544
0.009982681429281076
0.009982174248494811
0.009982060999733786
0.009982037050159974
0.0099820325400342
0.009982031803551641
0.009982031700267933
0.009982031685407157
0.009982031686198305
0.009982031688084265
0.009982031730687829
0.009982031901542019
0.009982033229256723
0.00998204272803155
0.009982104968726861
0.009982468119314743
0.009984266598579558
0.009991247067026013
0.02532339411243751
0.02082475744213148
0.01248794127428132
0.01198775986650306
0.01128878127365306
0.01103020290607186
0.01082244198819316
0.01071325712132047
0.01062467859469449
0.01056912583023761
0.01051980091747624
0.01049231039252588
0.01046053406401031
0.01044464676943243
0.01042274542569064
0.01041211011328074
0.01039695325964273
0.01038817191370388
0.01037774769624557
0.0103690414625783
0.01036202264504448
0.01035368056015841
0.01034833716661064
0.01034085137982227
0.01033563512278844
0.010329796576365
0.0103241206602455
0.01031844414404957
0.01031329395797396
0.0103084930771389
0.0103037826801046
0.01029941772961305
0.01029505815662853
0.01029075785615737
0.01028682592315991
0.01028323846386819
0.01027975427274247
0.01027619669750906
0.01027320921997498
0.01027019307624705
0.01026708021458802
0.01026455000806176
0.01026239081969942
0.01026040985947212
0.01025873171322574
0.01025759944694186
0.01025707582239344
0.01025713510788085
0.01025825491670751
0.01026103112528051
0.0102649718328174
0.01026809473802247
0.01026462534104044
0.0102469304080314
0.01021138854694731
0.01016154509307086
0.01010778729385117
0.01006167788911978
0.01002775571029178
0.01000539110684621
0.009990832101182033
0.009983888213223614
0.009982437067771622
0.009982118374636204
0.009982048653670013
0.009982034590149092
0.009982032111221686
0.009982031738725713
0.009982031692865876
0.009982031685187432
0.009982031684852176
0.009982031709942583
0.009982031747543949
0.009982032052034389
0.009982034177658299
0.009982048188265041
0.009982132676936085
0.009982584964121147
0.009984632202400551
0.009991854026417253
0.0236860924350917
0.01964377336720582
0.01236990658019973
0.01180854210769907
0.01121884778320937
0.01096168762285959
0.01078354176503858
0.01068460818714983
0.01060598226293831