/*--------------------------------*- C++ -*----------------------------------*\
| =========                 |                                                 |
| \\      /  F ield         | OpenFOAM: The Open Source CFD Toolbox           |
|  \\    /   O peration     | Version:  v1912                                 |
|   \\  /    A nd           | Website:  www.openfoam.com                      |
|    \\/     M anipulation  |                                                 |
\*---------------------------------------------------------------------------*/
FoamFile
{
    version     2.0;
    format      ascii;
    class       volScalarField;
    location    "0.002";
    object      nut;
}
// * * * * * * * * * * * * * * * * * * * * * * * * * * * * * * * * * * * * * //

dimensions      [0 2 -1 0 0 0 0];


internalField   nonuniform List<scalar> 
16000
(
3.129859215609559e-07
1.560130308577211e-05
1.143881204859832e-05
1.482295666395348e-05
1.635746027085621e-05
2.566990743811917e-05
2.803332771609099e-05
3.088174466860488e-05
3.042955618681358e-05
3.039150510236084e-05
3.07552146721645e-05
3.112089458533682e-05
3.169661751228598e-05
3.221810470595696e-05
3.267294507345754e-05
3.307542486151406e-05
3.342065875668453e-05
3.382465221318861e-05
3.432236122259164e-05
3.499313918242712e-05
3.584158847294546e-05
3.685545592778171e-05
3.803471756215382e-05
3.932873525415689e-05
4.075228212812451e-05
4.230388471759286e-05
4.402728739112111e-05
4.597915900556762e-05
4.820618778701013e-05
5.078686423690423e-05
5.3772274024282e-05
5.723305511008702e-05
6.125299330156146e-05
6.589854994467327e-05
7.128752989680219e-05
7.75315053500843e-05
8.477189840089822e-05
9.31849110042012e-05
0.000102961218726578
0.0001143287902548966
0.0001275486514006147
0.0001428761006150089
0.0001606092331929689
0.0001810130192390461
0.0002042963799080466
0.0002303668063112364
0.0002584567302734192
0.0002861402237381106
0.0003086983475515142
0.0003204862206530147
0.0003236951507198315
0.0003361223685921447
0.0003947591186664177
0.0005753089636721448
0.000660540177050481
0.0004087428304191962
0.0003153894185023733
0.0003184227289282422
0.0004009804324996033
0.0006111012066287849
0.001002236484933574
0.001001051684951122
0.001000237570438787
0.0009999546763685189
0.0009998819511418497
0.0009998627558028758
0.00099985774098447
0.000999856515559246
0.0009998562464941072
0.000999856193800285
0.000999856186593638
0.0009998561861899536
0.0009998561871377963
0.0009998561876718799
0.0009998561895743915
0.0009998561922086066
0.0009998561924447001
0.0009998561953928808
0.0009998565060977448
0.0009998637528606756
3.165271338387532e-07
1.420730384360725e-05
1.063469694129164e-05
1.323208746866617e-05
1.41774217512397e-05
2.208871227573423e-05
2.481363786578643e-05
2.891096359243064e-05
2.82031150757973e-05
2.839404233855253e-05
2.85889144165588e-05
2.900283239148844e-05
2.951760137314048e-05
3.000575795409847e-05
3.039828293600888e-05
3.07318563192108e-05
3.100537017648549e-05
3.134253182495866e-05
3.178043142741741e-05
3.240171467143661e-05
3.32066488208335e-05
3.418621356366557e-05
3.533030598296954e-05
3.659137342576363e-05
3.797064502851951e-05
3.947277190139065e-05
4.112551202805037e-05
4.298927646390595e-05
4.510228287337317e-05
4.754231733217818e-05
5.035901666127078e-05
5.361581436185112e-05
5.739981783690776e-05
6.176405179301564e-05
6.684019854636543e-05
7.271098914096378e-05
7.953962984560564e-05
8.747318002297468e-05
9.671627097168816e-05
0.0001075045485397482
0.0001200861043785627
0.0001347383392451692
0.000151760944715399
0.000171441220161689
0.0001940186660362539
0.0002195377300275874
0.0002475273405601753
0.0002762300302736474
0.0003013819396323743
0.0003162446114823685
0.0003191771715219932
0.0003248910120247155
0.0003675986231081648
0.0005182850239214561
0.0006767684592897969
0.0004191214746845243
0.0003077211426103671
0.0003004471881862906
0.000369574435603912
0.0005538315563189303
0.0009890311684746668
0.001001200938659514
0.001000308564307868
0.0009999704331451612
0.0009998855064798308
0.0009998635620666622
0.0009998579105323126
0.0009998565456078214
0.0009998562496341694
0.0009998561948152862
0.0009998561868719558
0.0009998561855922223
0.0009998561862323643
0.0009998561873259106
0.0009998561905698491
0.0009998561931377624
0.0009998561904933894
0.0009998562141936779
0.0009998566562319151
0.0009998670710960522
3.181753258985852e-07
1.287755345234295e-05
9.970234671188605e-06
1.187655813024296e-05
1.262966175335975e-05
1.859977196249837e-05
2.189455715263187e-05
2.659031182059983e-05
2.613233287910681e-05
2.647718253697509e-05
2.657322035315372e-05
2.700177683925195e-05
2.745400655798286e-05
2.789581396730044e-05
2.822653761688914e-05
2.850291178684402e-05
2.872809400381668e-05
2.902548614297069e-05
2.943368470078085e-05
3.002880843597427e-05
3.080958223678866e-05
3.17646627698631e-05
3.28771864763014e-05
3.410282703253557e-05
3.543894534272455e-05
3.688979337950262e-05
3.848139631423358e-05
4.02657124576893e-05
4.228639747297537e-05
4.460509822301563e-05
4.728233809440108e-05
5.036927891275156e-05
5.395848391574413e-05
5.809339957408559e-05
6.291631032817045e-05
6.849277620519001e-05
7.500587979151695e-05
8.259522462573359e-05
9.147782309859409e-05
0.0001018759429435621
0.0001140492746807196
0.0001282911290324335
0.0001449248444643204
0.0001642533829943452
0.000186559728736119
0.0002119831853317064
0.0002402683716377813
0.0002701338095010579
0.0002978697961006327
0.0003162008025447867
0.0003202163163964603
0.000321780761228213
0.000354613295416368
0.0004900179171375482
0.0007105751946928428
0.0004326317264778893
0.0003009650852698424
0.0002846586170402341
0.0003429167005825629
0.0005066167201339014
0.0008964173646493277
0.001001315881306244
0.001000371733298756
0.0009999837485790339
0.0009998883440610203
0.0009998641506338032
0.000999858023265725
0.0009998565633195689
0.0009998562515117322
0.0009998561951045696
0.0009998561869650389
0.0009998561854372421
0.000999856186159839
0.0009998561873619546
0.0009998561908014338
0.0009998561934793349
0.0009998561919421236
0.0009998562262679726
0.0009998569241283194
0.0009998702807797254
3.177410974014114e-07
1.175053592403768e-05
9.433949839158091e-06
1.076173886392618e-05
1.145329033022331e-05
1.583081633632602e-05
1.945566180065291e-05
2.399162085396026e-05
2.428059583205814e-05
2.461828775623472e-05
2.471278958985996e-05
2.509861158542433e-05
2.548442958582724e-05
2.586014818822501e-05
2.613060153734871e-05
2.635773359306739e-05
2.655635537230609e-05
2.683698302293574e-05
2.723829179398852e-05
2.782415150327776e-05
2.85899279321083e-05
2.952368374653818e-05
3.060499380748642e-05
3.179589664208803e-05
3.309217178377489e-05
3.449775157422419e-05
3.603712349343822e-05
3.775921164976998e-05
3.970436073055544e-05
4.193586056192334e-05
4.450380917952229e-05
4.747036899721257e-05
5.091117500369558e-05
5.488686046234924e-05
5.951144482503855e-05
6.485839543903111e-05
7.110407541667932e-05
7.838194006425336e-05
8.693366102847062e-05
9.695573700760299e-05
0.0001087208783882878
0.0001225408042367529
0.000138774931375908
0.0001577206840853664
0.0001797164351491462
0.0002049663752351236
0.0002334066464052466
0.0002641508577867959
0.0002941656136825216
0.0003162409893999996
0.0003227835577221429
0.0003222493896847366
0.0003480367583320609
0.0004708362616559986
0.0007278996593169174
0.0004411558243744942
0.0002941470430167911
0.0002716058251699523
0.0003223061397570296
0.0004716797201578977
0.000830148466702594
0.001001381429367223
0.001000418846767796
0.0009999923834843041
0.000999889870184622
0.0009998644166384579
0.0009998580684437237
0.0009998565691800405
0.0009998562515129148
0.0009998561938448793
0.0009998561849456518
0.000999856184218112
0.0009998561853086785
0.000999856188497713
0.0009998561914934345
0.0009998561940954668
0.0009998561931915638
0.0009998562462025472
0.0009998572249527726
0.0009998738458700215
3.151496688714895e-07
1.088856210133329e-05
8.978462323279794e-06
9.840364553516422e-06
1.05526177827077e-05
1.371983832830583e-05
1.752537883185291e-05
2.138582075221311e-05
2.261717365220187e-05
2.280185832998015e-05
2.295837071391194e-05
2.325839670520159e-05
2.357488225206709e-05
2.387410127364686e-05
2.409129863380448e-05
2.428317659001803e-05
2.447503810267927e-05
2.475760842057818e-05
2.516684189499428e-05
2.574979089191415e-05
2.649936218054002e-05
2.740283297029737e-05
2.843864253207944e-05
2.957720198693128e-05
3.081514518534881e-05
3.216035711797749e-05
3.363398068955241e-05
3.528289691165806e-05
3.71446826429892e-05
3.927671887440467e-05
4.172713641373595e-05
4.455957554354807e-05
4.784465426977448e-05
5.164454934421227e-05
5.606688140785373e-05
6.120304891395638e-05
6.720873366521968e-05
7.422303507975468e-05
8.248431580046071e-05
9.219271184978878e-05
0.0001036268286628859
0.0001171083738678738
0.0001330243736815468
0.0001516870733883806
0.000173487727947153
0.0001986947937100256
0.0002273802484220606
0.0002589466076613397
0.0002909246979895304
0.0003163482758884004
0.0003256817579560419
0.0003241744613970995
0.0003450830520208398
0.0004591384400176994
0.000730869934929497
0.0004405810006114584
0.0002859691042928448
0.000260292367409412
0.0003063681134839203
0.0004465391613946023
0.0007851983132267569
0.001001409992059621
0.001000440462008346
0.0009999958608977312
0.0009998903420154702
0.0009998644490481212
0.0009998580516482039
0.0009998565602342636
0.0009998562485145543
0.0009998561934794832
0.0009998561851857011
0.0009998561847734538
0.0009998561858005869
0.0009998561884339667
0.0009998561910833522
0.0009998561922584252
0.0009998561964820543
0.000999856274553878
0.0009998576018165548
0.0009998773850171257
3.07282284611828e-07
1.060496502603571e-05
8.633843620294097e-06
9.116858065692685e-06
9.865405032295666e-06
1.212695829108505e-05
1.607327042509506e-05
1.902852776221632e-05
2.111402355045414e-05
2.103664170473574e-05
2.127531775819244e-05
2.146897933316e-05
2.171798492511786e-05
2.194547483254182e-05
2.212414936442871e-05
2.229908715727783e-05
2.250283227736812e-05
2.280245376306054e-05
2.322832185731364e-05
2.381239276672535e-05
2.454507882549124e-05
2.541640321814979e-05
2.640504458101149e-05
2.749173520721278e-05
2.867436147126387e-05
2.996316873973872e-05
3.138254821286573e-05
3.297244709079835e-05
3.477081388489689e-05
3.683097352126891e-05
3.919395192392327e-05
4.192390199089783e-05
4.507773900763782e-05
4.87310668353461e-05
5.297975320522606e-05
5.792952746105818e-05
6.372463719481589e-05
7.051721761986946e-05
7.852997530791594e-05
8.799097017025943e-05
9.917466777114499e-05
0.0001124094906067938
0.0001281069899069395
0.000146590755378582
0.0001683021785077418
0.0001936120130616252
0.000222631954728206
0.0002549851571640738
0.0002885600258951463
0.0003166832878005565
0.0003284538087036582
0.000326637448551914
0.0003448460343573955
0.0004553770390145277
0.0007274791868965247
0.0004291368021417884
0.0002758014887091012
0.0002501014308887102
0.000294171137037692
0.0004295055519421403
0.0007581117118397586
0.001001414497993085
0.001000443394104062
0.0009999943846662508
0.0009998894895908606
0.000999864133083052
0.0009998579571595409
0.0009998565361155586
0.0009998562433156742
0.0009998561930951693
0.000999856185152577
0.0009998561862647585
0.0009998561858792694
0.0009998561892924818
0.0009998561910418546
0.0009998561928340765
0.0009998562003741334
0.0009998563164080312
0.000999858071939404
0.0009998810801216706
2.940314138637277e-07
1.158562835784072e-05
8.474352158851998e-06
8.863368247348274e-06
9.328541005676226e-06
1.09419435286239e-05
1.498469578573212e-05
1.703506206614254e-05
1.971419136764529e-05
1.933243590570391e-05
1.963355889472965e-05
1.972642851656558e-05
1.991773093897439e-05
2.008883731627744e-05
2.024736994614594e-05
2.042259479779102e-05
2.064862881337321e-05
2.097109781106232e-05
2.141309303514251e-05
2.199430086377139e-05
2.270375091792811e-05
2.353449632586057e-05
2.44677193849752e-05
2.54942598012704e-05
2.661492431273991e-05
2.784221443142799e-05
2.920170507432304e-05
3.072852525125738e-05
3.245887381491094e-05
3.444066008497981e-05
3.671283837471738e-05
3.934568126196555e-05
4.238480282672254e-05
4.59153952056187e-05
5.002456255184877e-05
5.48257055411022e-05
6.045559625277837e-05
6.707275607219039e-05
7.489759547410001e-05
8.416891984196545e-05
9.516730795338169e-05
0.0001082304939659705
0.0001237864485543714
0.0001421829760804203
0.0001638961261078253
0.0001893708418239438
0.0002187693858690928
0.0002518832090197898
0.0002868026575184286
0.0003169912096789075
0.000330627145633253
0.0003290240944811302
0.0003468518037733895
0.0004597607249577332
0.0007192791389764387
0.0004072144253760383
0.0002636880859684244
0.0002408128164016812
0.0002852118135446758
0.0004195876777901917
0.0007469478977341777
0.001001379672255419
0.001000418500312206
0.0009999868667820841
0.0009998873384852495
0.0009998635292580475
0.0009998577988780731
0.0009998564989492963
0.0009998562340563274
0.0009998561899274934
0.0009998561840555329
0.0009998561864336612
0.0009998561872559238
0.000999856190449275
0.0009998561920306567
0.0009998561934206084
0.0009998562048403881
0.0009998563712248487
0.0009998586445954753
0.0009998848951606766
2.791864590548768e-07
1.364760444411101e-05
8.374348291800172e-06
9.301696470628606e-06
8.981147979347354e-06
1.017876856080009e-05
1.422148941530893e-05
1.542217894788023e-05
1.837874044298869e-05
1.771394575163553e-05
1.803653727122468e-05
1.804779411474388e-05
1.819681959418898e-05
1.832952306791635e-05
1.848441219803973e-05
1.867070576929716e-05
1.892244037577262e-05
1.926644429135099e-05
1.971885460507026e-05
2.029287183872339e-05
2.097449102480898e-05
2.176326012511817e-05
2.264138829190365e-05
2.360893644645889e-05
2.467049259847516e-05
2.584111636335054e-05
2.714700842867994e-05
2.861725727219878e-05
3.028971123532317e-05
3.220510831410722e-05
3.440534226086182e-05
3.695650474791828e-05
3.990658076381582e-05
4.334151127245326e-05
4.734403732319262e-05
5.203070290906334e-05
5.753626178436799e-05
6.402434764411022e-05
7.171540181702022e-05
8.085571250443808e-05
9.173201311984088e-05
0.0001046914229068981
0.0001201777769531467
0.0001385610301209229
0.0001603480888595957
0.0001860309178462249
0.0002158191239442136
0.0002496019191898784
0.0002855827279527367
0.0003172515020956277
0.0003321500319397674
0.0003312412329633984
0.0003511672838083829
0.0004729474333443348
0.0007000182191339426
0.0003770652002496939
0.0002501584695693406
0.0002324243960721791
0.0002792228381344513
0.000416323322893
0.0007510786941802693
0.001001311582956162
0.00100037160975767
0.0009999747390104406
0.0009998841864877776
0.0009998627035840335
0.0009998575915073184
0.0009998564514582856
0.0009998562249031553
0.0009998561883646667
0.000999856184167493
0.0009998561870628903
0.000999856189615174
0.0009998561898392616
0.0009998561934012446
0.0009998561929216567
0.0009998562091841896
0.0009998564450991259
0.0009998593389259278
0.0009998888467274024
2.647875017982885e-07
1.47548873644978e-05
8.29498179901297e-06
1.000483284151027e-05
8.766857420975559e-06
9.841931520210127e-06
1.374394879643625e-05
1.417362657875569e-05
1.707292137690603e-05
1.620779333150992e-05
1.65080420207169e-05
1.645462336716469e-05
1.65775602398935e-05
1.668199761282326e-05
1.684358975033313e-05
1.704210184990802e-05
1.731514919044944e-05
1.767045074082575e-05
1.812323024579891e-05
1.867379568708867e-05
1.932172344226924e-05
2.006380385468755e-05
2.08908400427951e-05
2.180691617298087e-05
2.281998363379238e-05
2.394490808969849e-05
2.52079788756631e-05
2.663548248602017e-05
2.82643781332577e-05
3.013273934013284e-05
3.228159535351504e-05
3.477482663464647e-05
3.766150684670664e-05
4.102750193455035e-05
4.495361619832799e-05
4.955976762756949e-05
5.497960156420922e-05
6.137952893788272e-05
6.898233609334304e-05
7.804244647888125e-05
8.885377759422733e-05
0.0001017701973708053
0.0001172535685815267
0.0001356916040670205
0.0001576165704615979
0.0001835598361510505
0.0002137598914173209
0.000248164956628317
0.0002849873670238004
0.000317550235572871
0.0003330312683280639
0.0003333547143332488
0.0003582589457873628
0.0004960704052928138
0.0006589241144876952
0.0003422012941671163
0.0002359586508383107
0.0002251211854365899
0.0002762522790292883
0.0004198056058109686
0.0007710843486166948
0.001001215708460354
0.001000308332729695
0.0009999593315083437
0.0009998803552062378
0.0009998617383572197
0.0009998573604796
0.0009998564014323083
0.0009998562150306093
0.0009998561867775983
0.0009998561853248734
0.0009998561877275509
0.0009998561898289372
0.0009998561895401053
0.0009998561913052695
0.0009998561901289882
0.0009998562165040607
0.0009998565499809992
0.0009998601637581988
0.0009998929364264547
2.502501757594851e-07
1.421960271856415e-05
8.221848002945721e-06
1.012095777676224e-05
8.593328468677432e-06
9.691386294539026e-06
1.350291329696693e-05
1.319703619692499e-05
1.575290050737678e-05
1.479705887527763e-05
1.504622213399787e-05
1.494708560694008e-05
1.506554842679931e-05
1.514338247843256e-05
1.53203243130875e-05
1.551041427727248e-05
1.580385212035301e-05
1.615103762463464e-05
1.660472754209679e-05
1.713455684337307e-05
1.77373433939647e-05
1.843664284650571e-05
1.921827685709573e-05
2.008705657138866e-05
2.105476539042025e-05
2.213557728759131e-05
2.335531976924543e-05
2.473937585605036e-05
2.632288639106106e-05
2.814159687128109e-05
3.023582171091127e-05
3.266766432754917e-05
3.548497651676917e-05
3.877195371597737e-05
4.261070161293577e-05
4.712121273911754e-05
5.243874646058324e-05
5.909003706577538e-05
6.663791227182317e-05
7.565940825932503e-05
8.645849871138175e-05
9.938247326744202e-05
0.0001149290088162375
0.000133492152791184
0.0001556276582472545
0.0001818920914514425
0.0002125457874368628
0.0002475820387958268
0.0002851005907294127
0.0003180636392550203
0.0003335291242286807
0.000335821668817138
0.0003691441196147404
0.0005299723648394349
0.0005905683145475168
0.0003062526209035258
0.0002220202812734568
0.0002192411794061188
0.0002765548154096104
0.0004305985538821236
0.0008088075268587048
0.001001084046688677
0.001000235886717702
0.0009999422885324822
0.0009998762188751717
0.0009998607215133792
0.0009998571235416
0.0009998563514122267
0.0009998562056198676
0.0009998561845571254
0.0009998561835613197
0.000999856188036192
0.0009998561908328
0.000999856191186267
0.0009998561892388873
0.0009998561918500017
0.0009998562340444179
0.0009998566923690125
0.0009998611473813115
0.0009998971680410644
2.354091778697999e-07
1.41099846468717e-05
8.162063198104152e-06
9.940620175952229e-06
8.448302646488673e-06
9.349607297771844e-06
1.333454834153645e-05
1.235909694839773e-05
1.435528431217822e-05
1.346536169856949e-05
1.36189126010255e-05
1.350772967845428e-05
1.361715124727928e-05
1.367859191181297e-05
1.387287533321888e-05
1.406569449467122e-05
1.435948237402999e-05
1.4702635902648e-05
1.515076242480763e-05
1.56594313567074e-05
1.625615483783076e-05
1.692591849871014e-05
1.767807469728768e-05
1.851667815936483e-05
1.94570232862082e-05
2.05122813035776e-05
2.170897024415308e-05
2.307067212222817e-05
2.463011620689767e-05
2.642226787954471e-05
2.848665631570926e-05
3.087805406026452e-05
3.36497336361306e-05
3.688488177369355e-05
4.066946900973137e-05
4.512794313629344e-05
5.03996031035225e-05
5.667194026880952e-05
6.414398764966743e-05
7.310422551822466e-05
8.386453867781266e-05
9.750599316877184e-05
0.0001131783269454348
0.000131941170118054
0.0001543648680436419
0.0001810204469199258
0.0002121801540126191
0.0002478545895323167
0.000285923119503731
0.0003187975318734203
0.0003338172312748857
0.0003393036370848062
0.0003854465262561944
0.000571753006404304
0.0005039188770590442
0.0002721872260209756
0.000209172525052739
0.0002151899569187619
0.0002806046347376032
0.0004498203645235574
0.0008676750875488302
0.00100093440622558
0.001000161535379729
0.000999925182105116
0.0009998721250608774
0.0009998597346146385
0.0009998568994246582
0.0009998563066284136
0.0009998561993616337
0.0009998561838424206
0.000999856183496216
0.0009998561879911076
0.0009998561901465928
0.0009998561917417214
0.0009998561897378976
0.0009998561947118173
0.0009998562574050601
0.0009998568727545537
0.0009998623034133049
0.0009999015401777351
2.20521623504804e-07
1.414317887984219e-05
8.080873265130632e-06
9.585549572626824e-06
8.357047201314692e-06
8.932816056323961e-06
1.305811135511454e-05
1.148323693094073e-05
1.287728180547808e-05
1.215226620474614e-05
1.222192667547904e-05
1.213318096472156e-05
1.223776505494782e-05
1.229407143437825e-05
1.249304847210113e-05
1.269478206049649e-05
1.301261825073988e-05
1.336035574152416e-05
1.380700279458876e-05
1.430386612028399e-05
1.488485999156835e-05
1.553289860241901e-05
1.626455061767186e-05
1.708186496180138e-05
1.800364903660874e-05
1.904138953714021e-05
2.022070267440427e-05
2.156343799920622e-05
2.310069718266582e-05
2.486620894906569e-05
2.690157156201844e-05
2.92601083887803e-05
3.200230628415107e-05
3.520917661068625e-05
3.897144114073353e-05
4.341100929243258e-05
4.867337395795197e-05
5.493963881706168e-05
6.243497818725856e-05
7.143750429979909e-05
8.227856813010595e-05
9.53080336102513e-05
0.0001110269624253681
0.0001299165390079696
0.0001538279641636478
0.0001809543521503472
0.0002126877521862687
0.0002489963960316441
0.0002874371726756156
0.0003196671140024528
0.0003340750751850756
0.0003447157526925905
0.0004093828886357909
0.0006053009437438362
0.0004163943073623708
0.0002418983714387075
0.0001980983880002253
0.0002134448317884776
0.0002891288460549875
0.0004792482033837981
0.000953016945411159
0.001000782427485208
0.001000091558750964
0.0009999092936577225
0.0009998683536346521
0.0009998588419277052
0.0009998567044829118
0.0009998562690939114
0.0009998561932200547
0.0009998561833722832
0.0009998561834279806
0.0009998561878147719
0.0009998561899560671
0.0009998561928002464
0.0009998561902031832
0.000999856197613313
0.0009998562874684201
0.0009998571074471352
0.0009998636523629468
0.0009999060462003444
2.059395091928641e-07
1.422315092549945e-05
7.934956757565306e-06
9.160675988413002e-06
8.314280342005559e-06
8.501425490304594e-06
1.250214823675297e-05
1.057264056801917e-05
1.14145907123127e-05
1.088159005014642e-05
1.089845704914086e-05
1.08209759329451e-05
1.091473275090095e-05
1.100676597290922e-05
1.122042390081579e-05
1.14409079209992e-05
1.176807985122666e-05
1.211905432294172e-05
1.256393934747445e-05
1.304984398413902e-05
1.362060585015368e-05
1.425072671707852e-05
1.496858423480179e-05
1.576822418664785e-05
1.667678934851674e-05
1.769979140625038e-05
1.886554092286632e-05
2.019568773025664e-05
2.17198199957571e-05
2.347338017980674e-05
2.549804445072429e-05
2.784860294012736e-05
3.058466080571592e-05
3.378719728627084e-05
3.755199339502284e-05
4.199841457926638e-05
4.728173069279902e-05
5.358626689145591e-05
6.113873627556948e-05
7.022722198775782e-05
8.119212977551266e-05
9.437311134858043e-05
0.0001103121287381149
0.0001295146188748887
0.0001525434212653728
0.0001800042320064304
0.0002140610979595712
0.0002509949360377693
0.0002895887961656937
0.0003205754856909415
0.0003346749588983739
0.000353386030009524
0.0004432184563023617
0.0005939839959017847
0.0003405629791399246
0.0002162925683509825
0.0001893330522468612
0.0002145342467022752
0.0003031351601318541
0.0005215547822301224
0.00100159797870551
0.001000600246543534
0.001000030353020301
0.0009998954819090047
0.000999865091996613
0.0009998580824215305
0.0009998565422842545
0.0009998562385140329
0.0009998561874412419
0.0009998561817756335
0.0009998561831421704
0.0009998561869316587
0.0009998561897713385
0.0009998561915816331
0.000999856191970876
0.0009998562047800264
0.0009998563321552024
0.0009998574144369479
0.0009998652268270614
0.0009999106732371088
1.918615307249128e-07
1.427307678620171e-05
7.705312772260443e-06
8.617524612435442e-06
8.315715560761708e-06
8.072058590621419e-06
1.155224491768787e-05
9.623893871621852e-06
1.003231111910385e-05
9.646467501561906e-06
9.618735172729295e-06
9.596117897598508e-06
9.705063057789607e-06
9.826273161283896e-06
1.00506982782401e-05
1.028694639976239e-05
1.062016511273714e-05
1.097094812253625e-05
1.141599409237918e-05
1.188758356668475e-05
1.245511875221456e-05
1.306934274413623e-05
1.378294889990566e-05
1.457375957483405e-05
1.547989653877019e-05
1.649912022887651e-05
1.763255760608894e-05
1.895246150734547e-05
2.046549090255815e-05
2.220611535508302e-05
2.42144494770571e-05
2.654850761963882e-05
2.926396545913067e-05
3.244741704561386e-05
3.619668852992623e-05
4.063383878006999e-05
4.591671614302739e-05
5.223162470634892e-05
5.981418018080414e-05
6.894832856609117e-05
7.9993297917993e-05
9.399761821857503e-05
0.0001102226007213463
0.0001298129317558144
0.0001532665083778694
0.0001812675420863759
0.0002140895585385587
0.0002513622145459971
0.0002921976767885712
0.0003214120673440413
0.0003362831403430897
0.0003671873333131596
0.0004863056896650629
0.0005173279564658141
0.0002804090964812769
0.0001956017084446654
0.0001832877896718417
0.0002190911744251701
0.0003240326375878787
0.00058061736006163
0.001001330293683971
0.001000425193086979
0.0009999801438828275
0.0009998841475558171
0.0009998624271588884
0.0009998574730289511
0.0009998564150198285
0.000999856214897216
0.0009998561832833229
0.0009998561814711935
0.0009998561848554542
0.0009998561875335567
0.0009998561890993123
0.0009998561918354713
0.0009998561935176589
0.0009998562151473218
0.0009998563967427176
0.0009998578068362665
0.0009998670376747268
0.0009999154078293103
1.792133587668891e-07
1.419821487187788e-05
7.412347215797201e-06
7.902394908011838e-06
8.357567392894116e-06
7.625211490586405e-06
1.026186949618726e-05
8.657232030578897e-06
8.724861165498435e-06
8.463539453232964e-06
8.448859754906709e-06
8.474221147083858e-06
8.593783930040996e-06
8.744222585895712e-06
8.973135853712406e-06
9.2227724480077e-06
9.558313472770603e-06
9.908418483685838e-06
1.03570435564028e-05
1.082483828966812e-05
1.13971262569531e-05
1.200881822172265e-05
1.271491387730654e-05
1.350172070847667e-05
1.440989572047763e-05
1.542560713072844e-05
1.658954376726462e-05
1.791468795807533e-05
1.94345082652818e-05
2.118206102109345e-05
2.319628261928337e-05
2.55425168318806e-05
2.827100718855152e-05
3.148016942229497e-05
3.526260409574566e-05
3.975182314628187e-05
4.510370582063105e-05
5.151367199076949e-05
5.92184797227713e-05
6.850034067083632e-05
7.972102361593933e-05
9.329337871364061e-05
0.0001097430943221633
0.0001296523837467978
0.0001547933519579267
0.0001832919175440206
0.0002166932862841709
0.000254432781252895
0.0002920408531808746
0.0003191500911605456
0.0003399463860158385
0.0003883014385578864
0.0005244131816276144
0.000412729061599523
0.0002348500949021642
0.0001796665734980449
0.0001803043021757011
0.0002278959694415496
0.0003537803585389578
0.0006620518105797889
0.001001069280190264
0.001000246839646905
0.0009999414252354082
0.0009998753217519145
0.000999860364655132
0.0009998570121558007
0.0009998563225286495
0.0009998561992451869
0.0009998561812807553
0.00099985618152782
0.000999856185657472
0.0009998561874549128
0.0009998561891614386
0.0009998561920841007
0.0009998561960193554
0.0009998562293450262
0.0009998564861072462
0.0009998583018299809
0.0009998691121671024
0.0009999202254079816
1.678518516039184e-07
1.354134140921947e-05
7.040785694866856e-06
7.086900714401964e-06
8.374990357286042e-06
7.126851124599739e-06
8.809793272141356e-06
7.605178699795369e-06
7.519213464571162e-06
7.374556379589372e-06
7.378119366588456e-06
7.448681129986487e-06
7.56838632985014e-06
7.752403519472845e-06
7.978072074287829e-06
8.249028195813289e-06
8.586990692821726e-06
8.952534495866288e-06
9.405028941379209e-06
9.875540526278101e-06
1.045121332935552e-05
1.106631017710224e-05
1.179300593858377e-05
1.258511674496707e-05
1.350687167172193e-05
1.452979432552475e-05
1.570978524457807e-05
1.704450099360579e-05
1.858056653766838e-05
2.034401852142176e-05
2.237880807005319e-05
2.47504337781525e-05
2.750828468939303e-05
3.076060405622505e-05
3.459286380022756e-05
3.915631413649558e-05
4.460165349091866e-05
5.113603166561962e-05
5.900235722187301e-05
6.848324963608225e-05
7.99404995264419e-05
9.379951358025882e-05
0.0001105891595965365
0.0001309416155987739
0.0001553927577431091
0.0001844023963109462
0.000220142472711152
0.0002579519526267049
0.0002942689602096965
0.0003198065369937607
0.0003437653047175521
0.0004179786943683741
0.0005178405530301791
0.0003217149190002322
0.0002012129205208284
0.0001681907386132377
0.000180742622872442
0.0002419522044930744
0.0003950786348434592
0.00077393258683049
0.001000809886972305
0.001000115654162256
0.0009999128002998101
0.0009998687800092129
0.0009998588533014705
0.0009998566846892911
0.0009998562593319189
0.0009998561890300173
0.0009998561808006237
0.0009998561827006057
0.0009998561857226126
0.0009998561874373952
0.0009998561888123376
0.0009998561926446174
0.0009998561988927102
0.0009998562480666286
0.000999856609630978
0.0009998589212259039
0.0009998714592615425
0.000999925096611841
1.576112001927647e-07
1.219786435298977e-05
6.607551013538852e-06
6.263225519700548e-06
8.262403764888501e-06
6.541922940198662e-06
7.350167665270313e-06
6.55560047850178e-06
6.440106128165239e-06
6.377486711697169e-06
6.393065073769715e-06
6.511568330081984e-06
6.635943979405597e-06
6.853071697780529e-06
7.085941364611037e-06
7.383962547964163e-06
7.723947997941629e-06
8.10620487212561e-06
8.55762219859455e-06
9.05115679499014e-06
9.633769770560986e-06
1.026240782074652e-05
1.100309876310528e-05
1.180700265978085e-05
1.274765615860122e-05
1.378362689698201e-05
1.498569391803937e-05
1.633764585774895e-05
1.789823437554306e-05
1.964376218660919e-05
2.169501496229191e-05
2.408456875538942e-05
2.686410749533215e-05
3.014586540434855e-05
3.401083213662846e-05
3.862393680974906e-05
4.413100918614344e-05
5.075001079769461e-05
5.872961892563827e-05
6.881608284129502e-05
8.057468639293093e-05
9.480495633360655e-05
0.0001119868442305373
0.0001328200715172874
0.0001578129749283414
0.0001874128545795787
0.000221910313439002
0.0002618116329624197
0.000296336420992964
0.0003212534296117074
0.0003555546034780395
0.0004472254645210788
0.0004443547124351882