/*--------------------------------*- C++ -*----------------------------------*\
| =========                 |                                                 |
| \\      /  F ield         | OpenFOAM: The Open Source CFD Toolbox           |
|  \\    /   O peration     | Version:  v1912                                 |
|   \\  /    A nd           | Website:  www.openfoam.com                      |
|    \\/     M anipulation  |                                                 |
\*---------------------------------------------------------------------------*/
FoamFile
{
    version     2.0;
    format      ascii;
    class       volScalarField;
    location    "0.002";
    object      omega;
}
// * * * * * * * * * * * * * * * * * * * * * * * * * * * * * * * * * * * * * //

dimensions      [0 0 -1 0 0 0 0];


internalField   nonuniform List<scalar> 
16000
(
1186.002403275924
129.2928196294282
49.55071809442914
37.30447202566214
29.95578151110426
26.37477302501266
24.30065980805885
23.37076116205376
22.53139682370989
21.96512980354012
21.31886147856723
20.74291067694293
20.14259920458149
19.60368340380376
19.12188742363927
18.66533258773102
18.25812021396301
17.84903760832555
17.44374710648653
17.01821390135336
16.58805251277357
16.15182934475527
15.71992723839937
15.29985281178562
14.89192974709799
14.51103619013313
14.14646223213621
13.817488680489
13.50572208917448
13.22016720833957
12.94845902541392
12.69136992872144
12.44860735198977
12.21644002692133
11.99679399739169
11.79077383361581
11.59679870168337
11.41767594460032
11.25254007002701
11.10245864130999
10.9675592724749
10.84664390016539
10.73901188622851
10.64351503347499
10.55918960527856
10.48533571143979
10.42108020197815
10.36552291085051
10.31780401225804
10.27711217227117
10.242734724078
10.21412682874271
10.19088290563383
10.17223274423087
10.15584594757827
10.13500928976121
10.10579690705444
10.07209745633098
10.04077878575209
10.01702753960828
10.00207595768424
9.992849378076038
9.98646056588381
9.98424069466293
9.983669990609089
9.983519325217978
9.983479919280649
9.983470220453158
9.983468028248756
9.98346757880482
9.98346747839714
9.983467453885259
9.983467439869937
9.983467425831567
9.983467423963893
9.98346741293558
9.983467456513072
9.983468915358626
9.983503606615486
9.984326826655627
1220.934585384164
151.0424585682533
67.37504251949399
49.27846157717911
37.36110772094756
31.43129204495834
28.25976275126967
26.55744629584848
25.54540702863749
24.52444367652157
23.67316903721077
22.79304015821694
21.97690980539227
21.23347026061969
20.59184785451968
19.98866035345639
19.45866823551784
18.93521515635613
18.42630816510482
17.90462941285924
17.38503276735745
16.86691577155961
16.35732876614762
15.8707880136655
15.39980362208583
14.96501721821231
14.54950498421531
14.17538015739405
13.82352296766898
13.50226665846082
13.19990226942766
12.91471342316417
12.64793163718545
12.39253595109871
12.15478585711766
11.92958652697332
11.72031321171798
11.52571316884441
11.34679149961243
11.18459282172945
11.03851750911783
10.907737846816
10.79183414171432
10.68927784937889
10.59911120473607
10.520296928063
10.45195943683011
10.39310454755771
10.34267645636883
10.29966977513384
10.26318779812162
10.23260687116722
10.2074299476319
10.18706026305853
10.16926425248552
10.14771014402645
10.11725183838663
10.08134502808399
10.04726254901617
10.02094407121576
10.0039595862867
9.994020658709825
9.987017821607029
9.984364439874781
9.98369795467503
9.983525694730291
9.983481290657993
9.983470497861752
9.983468086733907
9.983467582533924
9.983467479349899
9.983467463184407
9.983467450677471
9.98346742997693
9.983467427095743
9.983467417479243
9.983467529838229
9.983469840733669
9.983522655180126
9.984712502704925
1251.820250220027
206.8108373823881
94.58400346455248
67.51494939730557
47.896668889407
38.53111002265246
33.626101161271
30.72126872036342
29.41105846828167
27.70760870032587
26.47843275692576
25.19617352972738
24.07061234715109
23.06144564542211
22.19971364435376
21.40885126658165
20.71615997566692
20.04344952664814
19.39904723386373
18.7504755316548
18.1196520098267
17.4966124113669
16.89953302614595
16.33399735050915
15.79750646568192
15.30723079301792
14.84574033586055
14.43118927813396
14.0464809393853
13.69352036568705
13.36522856833983
13.05581630112959
12.76868483159295
12.49408607907278
12.24119909195342
12.00132817290998
11.78125265216569
11.57766433959171
11.3920725868002
11.22388233988514
11.07232564481661
10.93681755207139
10.817039586295
10.71101322994728
10.61780947267405
10.53633031146737
10.4656747685593
10.40489716713574
10.35292518655354
10.30865695176277
10.27111502044839
10.23965114114357
10.2138021374455
10.19307213036111
10.17562882525059
10.15511009721951
10.1249432787288
10.08806660776905
10.05216329070819
10.02375381480092
10.0054994720371
9.994919613735865
9.987513505034421
9.984468887904594
9.98372018998881
9.983530285604882
9.983482161347517
9.983470640405667
9.98346810741786
9.983467583321008
9.98346747803372
9.983467463215757
9.983467451196807
9.983467429716095
9.983467428039953
9.983467418503645
9.98346766013001
9.983471595628307
9.983549846486016
9.98507955144167
1278.209089979278
295.30998644032
134.1403731171055
95.20899931920012
62.77792977796125
49.02773782344704
40.7964163611993
36.43019689919017
34.28346982582491
31.69136098650373
29.91524284675282
28.08659696171026
26.56566985549769
25.21228949588063
24.07267555707519
23.04527332112633
22.14428420529413
21.28959535865727
20.47998036113442
19.68988638234049
18.93468226903811
18.2011109958154
17.51258206647133
16.86551766629734
16.26153319309628
15.71026985456653
15.19686636098444
14.73741340218137
14.31329610907677
13.92830875077637
13.56996148939426
13.23743241590598
12.92806925023878
12.63671881483702
12.36636247829824
12.11057712043678
11.87595622540522
11.65847793201245
11.46249400605672
11.28428105078421
11.1235982026729
10.98054390730418
10.85543463166769
10.74449183203053
10.64724702974605
10.56197211146135
10.4880211256922
10.42420640143877
10.36953066548211
10.32299720399303
10.28344221521957
10.25017753741964
10.22289329059489
10.2009460214614
10.18288448525676
10.16248536145416
10.1319718691103
10.09389033490926
10.0563185036465
10.02627427825664
10.00656605580031
9.99543055780393
9.987883287023925
9.984536645162613
9.983732158674327
9.983532361059982
9.983482509822808
9.983470686295384
9.98346811191244
9.983467588258296
9.983467488546561
9.983467463807845
9.983467450423063
9.983467425630524
9.98346742272394
9.983467419773358
9.983467758698945
9.983473798417364
9.983584877519238
9.985490285238818
1299.872114269192
417.6920555380964
185.7892422309241
132.5136634458269
82.51269510972183
63.41965485058332
49.88321023733542
43.69978021671135
40.15237951396956
36.44052413411617
33.87647825263555
31.36792614216802
29.34475974577915
27.57270924215036
26.08865994152778
24.77342686197695
23.62207799773449
22.55142648647005
21.55246145386219
20.59822214351355
19.70019474782694
18.84194744918392
18.05148808554485
17.31429551200952
16.63919830905178
16.02852742651972
15.46624959985062
14.96514335576794
14.50526072571011
14.08880470473367
13.7029151363273
13.34791291915021
13.01948585035947
12.71232929176906
12.42835995040419
12.16366889391162
11.92113988571167
11.69707709372591
11.49555474821169
11.31252767150439
11.14758872408437
11.00084327574231
10.87308213746991
10.75966915470238
10.66054884127375
10.57366450967132
10.49839050237922
10.43346513138892
10.37816122307935
10.33101009703748
10.29102705120715
10.25733997167704
10.22933799601126
10.20674033928126
10.18836586756116
10.1680596201821
10.13735579527815
10.09811164461123
10.05900472009956
10.02772012866787
10.00712855829818
9.995649989283544
9.988052967426151
9.984563937204369
9.983735866766819
9.983532622306891
9.983482392620221
9.983470626996111
9.983468098395415
9.983467585301053
9.983467487838057
9.983467458322639
9.983467450538329
9.983467426218413
9.983467427411998
9.983467446865763
9.98346796364201
9.983477124172818
9.983628650145992
9.98589705277695
1314.04930112028
574.6669118207948
250.8241206154999
178.7672781252997
106.0849000226712
82.07019680135097
60.69269789657223
52.59730237855224
46.92199479204703
41.84947076059236
38.32053999226495
34.98135942836839
32.3794858339253
30.11302588337949
28.23866947925324
26.59303230993336
25.15954363753827
23.8458884255794
22.63614413101828
21.50682707489316
20.45889323928079
19.48064775322163
18.59094384612101
17.77155027952461
17.02999189627419
16.36054867897255
15.75331279177909
15.21131795553556
14.71746076436126
14.27173916697788
13.85853972448844
13.47969341700421
13.12701384304885
12.80038309773326
12.49880113037048
12.22103585871538
11.96732322714247
11.73530116565681
11.52645584934563
11.33866526787329
11.17004586695531
11.02011214253387
10.88996586006932
10.77397023405736
10.67267674995357
10.58523063904688
10.50888285318084
10.44306269854173
10.38644290764392
10.33829291461028
10.29754020635135
10.26318095212324
10.23461556355089
10.21156680796425
10.19280278538771
10.17210650212974
10.14070643065795
10.1004561528423
10.06031373430041
10.02833182916181
10.00733555044985
9.995682465869152
9.988076083181243
9.984552452786721
9.983729249283408
9.983530157958205
9.983481622764279
9.983470423200759
9.983468052653674
9.983467571278736
9.983467486301883
9.983467444998407
9.983467449168877
9.983467417638634
9.983467428520495
9.983467460141307
9.983468280513396
9.983481726467584
9.983682597388627
9.986321683762478
1318.909764960643
758.1445553931684
315.188853931554
231.0825624748449
131.4163205331701
103.4103125388078
72.34195085105026
62.63817768996345
54.22516930642388
47.59237967721866
42.99249953868571
38.70572755173382
35.49258432068605
32.67551590592931
30.38816576801121
28.37985203792966
26.63895632433364
25.06610379924964
23.63366149842158
22.32349276993056
21.1195120584384
20.02002690286428
19.02741625226226
18.12732142104255
17.32170122076599
16.59850383281553
15.95022891241097
15.37200719183645
14.84788288201923
14.37520191934407
13.93874182562592
13.54328530312199
13.17548597982336
12.8382296260535
12.52778607564932
12.2439689559081
11.98520652226421
11.7494083820362
11.53752345245911
11.34771710474782
11.17762801392806
11.02653221898119
10.89552533182369
10.77868047386642
10.67660243940638
10.58923779045635
10.51282576414352
10.44772970431801
10.39150564425708
10.34329416444174
10.30211956181619
10.26744589153223
10.23880264500771
10.21567978016874
10.19674979749736
10.17537438241403
10.14262371120016
10.10158091234302
10.0607921046524
10.02823424769087
10.00704121173325
9.995407926504145
9.987880789445224
9.984493485103137
9.983712416614747
9.983525456522726
9.983480378002042
9.983470123441778
9.983468000165145
9.983467568762828
9.98346748667233
9.983467445321217
9.983467428542395
9.983467409510622
9.983467419688479
9.983467490971679
9.983468792058423
9.983488160764351
9.983748470203262
9.986760661339554
1318.426007464082
947.4965897956824
354.9961158280641
286.533885144336
156.989619351157
125.5443680158481
83.92169684555044
73.0074026223251
61.58203743250215
53.27063051319562
47.65683134539176
42.333184379653
38.55149276352104
35.14505380684361
32.45348782319907
30.06941910563754
28.01871455044708
26.18579837103665
24.52989792486009
23.05348239360557
21.69872839917275
20.48950481998997
19.398077682362
18.42095937807153
17.55464934816602
16.78329585821879
16.09920577429404
15.48853220302523
14.93941240234022
14.44407586877216
13.99052102128508
13.5811814261059
13.20329077585061
12.85920747850234
12.54334022777902
12.25568973200582
11.99392446802736
11.75609061837578
11.54263997763496
11.35172780308968
11.18085328860438
11.02910045219396
10.897651469104
10.78039532721164
10.67797033759909
10.59056665976458
10.51410071800183
10.44936430315227
10.39351915481686
10.34614870055987
10.30568152556998
10.27124067651472
10.24237957950024
10.2190927403742
10.19988945368787
10.1773895479056
10.14364442320314
10.10123931795726
10.05968149747008
10.02705720142066
10.00622595451918
9.994875097939834
9.987512834453584
9.984398326858447
9.983687684321573
9.983519004619842
9.983478793804059
9.983469774447714
9.983467933098231
9.983467561734388
9.983467484580103
9.983467439263928
9.983467414438575
9.983467415763421
9.983467409248782
9.983467559084572
9.983469594511345
9.983496954158092
9.983827870604836
9.987214927428125
1315.879391921608
1120.550263731544
387.1284781219806
334.5714848451003
173.6163823357751
147.093997658536
94.78350569311034
82.79400886455446
68.50975580329531
58.5114046921725
52.04011746524714
45.6300699787996
41.3816063338389
37.34762503893002
34.29287939840818
31.53044375991492
29.18644754784917
27.08431849207374
25.21769042958363
23.53684121735969
22.05349006026512
20.74848349936991
19.59164855028021
18.57150385204864
17.67432017924401
16.87875722958141
16.17566123701539
15.54832226890226
14.98596214527031
14.47946446563379
14.01720077838504
13.60067128189396
13.21771114892681
12.87001618083401
12.55124370626873
12.261531090424
11.99808754020208
11.75878645224118
11.54410893814405
11.35238579394073
11.18111296061761
11.02895990433049
10.89747827293997
10.78014989446981
10.67764631191747
10.59042347141665
10.51402270091046
10.4496144347426
10.39396565580202
10.34691843168982
10.30685494679049
10.27301771458496
10.24468603463288
10.22156689086064
10.20209187330871
10.17832475043725
10.14251881546554
10.0990400369998
10.05727458451284
10.02508860213519
10.00493494269101
9.994126729017793
9.98701627086985
9.984277448438128
9.983657639087195
9.98351144161753
9.983476988187268
9.983469386921385
9.983467860134992
9.983467548789891
9.983467470382898
9.983467427419939
9.983467414924338
9.983467418211886
9.983467437238229
9.98346769425974
9.983470791646251
9.98350876499803
9.983922905851109
9.987685316470204
1311.250698097509
1255.08604231484
417.9224639023666
360.481320049437
184.5730854599078
164.353945902397
104.7094439437539
91.38524903382795
74.68862202131378
63.08480155710606
55.95258376643644
48.45481085705158
43.87167515540617
39.15234018566765
35.81955621119838
32.49110173755138
29.97790765807026
27.54889126364453
25.58865236741706
23.78729763559506
22.25180262568015
20.89594302467061
19.7066584931841
18.66068718711501
17.74488570092655
16.93391074532163
16.21827404114335
15.5810949888287
15.01137201869279
14.49864704847345
14.03127669467291
13.61079428811322
13.22414599058732
12.87290203399737
12.55112543404558
12.25885622028974
11.99317928215592
11.75208117030514
11.53634514610932
11.34451073475187
11.17405070533209
11.02210501472721
10.89188840517916
10.77557156702646
10.67396677207641
10.58751650526083
10.51165939654963
10.44829774048809
10.39322316080984
10.34684017145807
10.3071320642517
10.27369574537694
10.24584856939818
10.22316084256201
10.20349390102317
10.1776834698404
10.13979874463287
10.09520783034022
10.05360297956528
10.02236388418866
10.00315323930946
9.993098706469137
9.986447756230096
9.984143724739134
9.983625187362202
9.983503469034194
9.983475134674293
9.983468996550091
9.983467781872443
9.983467536208792
9.983467477559
9.98346743104941
9.983467407569002
9.983467418586022
9.983467468131526
9.983467854108502
9.983472498500952
9.983524488596192
9.984035637475491
9.988171958280672
1304.45534172199
1350.56546127598
448.0699222037531
377.8282553206722
192.7189103987378
173.1170671716476
111.9989288268313
97.9619607783481
79.11984835952001
66.8418482416526
58.63147846514123
50.48695604892848
45.45173085022504
40.14021631300518
36.63977878437017
32.99106113316492
30.39691049917376
27.80932657135973
25.8068757450785
23.92984199007289
22.3677169373266
20.97806617030413
19.77220552211185
18.71134925361015
17.78478420751483
16.96413870958629
16.24108705222942
15.59720298209851
15.02085969401319
14.5014530535202
14.02836214322516
13.59954111308143
13.20601998799424
12.84920061258921
12.52393605317711
12.23054592991336
11.96547207215619
11.72857030547635
11.51458264468955
11.32532212162192
11.15794538467332
11.00781215382643
10.88002994832098
10.76612733805736
10.66657655110589
10.58167669677489
10.50688844993305
10.44489176601976
10.3906332188295
10.34552636964306
10.30656511388991
10.2737684305903
10.24636198289929
10.22414442922943
10.20380795708702
10.17547376728575
10.13532898650406
10.08974312849982
10.04877694704421
10.01905471077639
10.00128664798019
9.991926930786159
9.98586431637564
9.984009513898782
9.983593061919734
9.983495719675355
9.983473375475018
9.983468626910016
9.983467700131465
9.983467524552884
9.983467478446549
9.983467431779506
9.983467416550168
9.983467417906851
9.983467488374824
9.983468112022075
9.983475018652934
9.983545305605913
9.984168475955489
9.988674674649589
1295.915700954018
1425.756825616929
474.7063156732516
390.8558744226835
200.0208706565894
178.2090544700593
117.2804982347645
101.587658845452
81.84193804699154
69.09922264441541
60.10232829294352
51.70844623289072
46.29494287073495
40.76151651677078
37.10460767769192
33.29117417326031
30.64130014064146
27.96017416844956
25.93533559226628
24.01366660876578
22.43808060922503
21.0230579067701
19.80569918089606
18.72956345834663
17.79326051903288
16.96233808143601
16.22852235846338
15.5723712353079
14.98531936224599
14.45531397140102
13.97511162336523
13.54171935407964
13.14879665942641
12.79444788714191
12.47362036572511
12.18459442693903
11.92414352628791
11.69021611201098
11.48141412049369
11.2965660894948
11.13411640531142
10.98899415154015
10.8634602491358
10.75286149614721
10.65579484769442
10.57334304839276
10.5003457633372
10.43967691668018
10.38643662027017
10.34268504817739
10.30464039611679
10.27298178988702
10.24638991227122
10.2245189070609
10.20289371052439
10.1715206852775
10.12897061586785
10.08296252590536
10.04316514765457
10.01526316658234
9.999209948622967
9.990738640025864
9.985315200496913
9.983884848126266
9.983563457069188
9.983488683997106
9.983471805692027
9.983468308075645
9.983467639239498
9.9834675109557
9.983467477500049
9.983467433935688
9.983467419564978
9.983467410341289
9.983467529392852
9.983468539494579
9.983478698264422
9.983572497630764
9.98432391628443
9.989192823953301
1286.337044288945
1486.447156993826
496.4643092566334
402.2672680673532
206.5992747547589
181.5993903385443
121.5221567068785
103.9339981134082
83.76444486976268
70.60611887374382
61.04372695562719
52.52901578631861
46.79458931353315
41.15803058659573
37.38060674121103
33.48535953334533
30.79292067433143
28.04101881598209
26.00562474021083
24.02493384047749
22.44762796663872
20.9870381045541
19.75931220910562
18.65329902048976
17.70862620032975
16.86390291800411
16.12451135432542
15.46651328789168
14.88117036233556
14.35625603642512
13.88300729355289
13.45846503972827
13.07414510622987
12.72726301259688
12.41373748778142
12.13042536996071
11.87604805414971
11.6479432623832
11.44415888441272
11.2643008587586
11.10665860911952
10.96434180463408
10.84220133839732
10.7354993585996
10.64204699625161
10.56281975004955
10.49255786854873
10.43340520064472
10.38184193384154
10.33904256441715
10.30171617975302
10.27112994823712
10.24549225917067
10.22396816046832
10.20032579915108
10.16556551671102
10.12087697153734
10.07490495877699
10.03687719851168
10.0112613144891
9.99701181423003
9.989308444272091
9.98483489908279
9.983776436438223
9.983537835578
9.983482701690372
9.98347050935952
9.983468057475784
9.983467603814049
9.983467507533312
9.983467472710535
9.983467435322138
9.983467421050372
9.983467430109267
9.983467591634646
9.983469185101544
9.983483936144365
9.983607617146198
9.984504406931544
9.989725177928396
1276.140363502812
1536.112747111808
512.8496518215848
410.5720046999119
212.3601611632625
184.1726062081928
125.0512761448528
105.6064396818431
85.18869823189189
71.64600254244088
61.71591263398725
53.1010204350369
47.13011356589965
41.440800745548
37.53133360119968
33.5633157634485
30.83081428645423
27.96624602727393
25.94854430285921
23.82662151826915
22.29086050067755
20.75414015507897
19.55735989847368
18.44228521165229
17.52253317930751
16.68670000523637
15.96813616027166
15.32401223239799
14.75371394888905
14.24193236469391
13.77866566737318
13.36476105616821
12.98783940478476
12.64910750314791
12.34354841939714
12.06772014352632
11.82059210986981
11.59886624099964
11.4015515180327
11.22699122370396
11.07492388435396
10.93856647632731
10.82022107339421
10.71793271260676
10.62597546610722
10.54927460590388
10.48288924817146
10.42637071326067
10.3772361021715
10.33505542920981
10.29853541919501
10.26877969794588
10.24412437355967
10.222523873996
10.19593428773226
10.15771418414893
10.11125237182492
10.0658875573522
10.03017737845112
10.00719517915908
9.994960169806243
9.987934488625074
9.984440896247104
9.983687485157667
9.983516915579891
9.983477923435558
9.983469520551957
9.983467878009185
9.983467576188348
9.983467504373499
9.983467454898483
9.983467436929228
9.983467425323617
9.983467441711975
9.983467713110112
9.983470192174453
9.983491310407656
9.983652565119076
9.984712567143545
9.990269816859522
1266.751300140072
1578.550034202907
523.8829462529769
413.8184605843086
217.3471599273332
185.7139609910703
128.1181157632751
107.0033906404207
86.35946128771023
72.4592719434911
62.1234213934945
53.50846780822324
47.20491171513144
41.54021229221539
37.41155292832158
33.362885660701
30.56862980986745
27.53915688571496
25.61255860972193
23.40290759345718
21.97989510622386
20.42028424244801
19.30553636885832
18.19361684077879
17.32282436480083
16.49432179524223
15.79790205461827
15.16445751882367
14.60712596063861
14.10682759661824
13.65174111247527
13.25000405444067
12.88172900235931
12.55483199387442
12.25910006075847
11.99411911697422
11.75647840587011
11.54390214648462
11.35431933316864
11.1853572366915
11.03701868734478
10.9066126638602
10.79440105704534
10.69875417031086
10.61331630014219
10.53560721205506
10.47001979315534
10.41649867076353
10.3714464947457
10.33086195964235
10.29567864384472
10.26612820198751
10.24236042579788
10.21989859468398
10.18964947144704
10.14786424988658
10.10016202579831
10.05626989265997
10.02348320711565
10.00330129619122
9.992956441106896
9.986534248804046
9.984137044902544
9.983618234222567
9.983500751057123
9.983474317743203
9.983468789580453
9.983467742266248
9.983467553648245
9.983467498957879
9.983467448469955
9.983467438882766
9.983467429434304
9.983467468567556
9.983467915451058
9.98347174583532
9.983501590176594
9.983709505080686
9.984950656865179
9.990824088452113
1258.69504821771
1615.740047772693
530.2131351896583
411.1228925052919
221.6810198524209
186.2568643133479
130.3229963653294
107.9081071401298
87.01964005765572
72.87782992058408
62.07494578397252
53.59840063533858
46.63969465945995
41.25414610266235
36.68281720694821
32.77407492042264
29.9262830754184
26.99012292759735
25.14082449396269
22.96850086213368
21.64663095089158
20.07400507401474
19.04148056454504
17.90849524050715
17.09342600648839
16.25890684043452
15.60061600009253
14.97329066117755
14.43641964543535
13.95028288258523
13.51090808700494
13.12448241228686
12.7678174023989
12.45476168560793
12.16876788705136
11.915790241262
11.6882061259475
11.48577174423288
11.30569246730363
11.14437667793115
11.00137196388846
10.87489013307594
10.76523833348662
10.67360332925032
10.59438555903429
10.52386380662641
10.46205244374282
10.40614816913474
10.36188382826066
10.32518345381361
10.29308343181731
10.26345811660159
10.23968566245504
10.21547469216985
10.18097956948102
10.1362326918806
10.08816093278912
10.04648684925716
10.01698539335768
9.999580530637331
9.990944260427344
9.98550447381508
9.98391239017093
9.983566878075122
9.983488882711217
9.983471743155752
9.983468287350526
9.983467650396044
9.983467528451389
9.983467479218257
9.983467451477978
9.983467438977289
9.983467434906579
9.983467513489202
9.983468260945118
9.983474106736111
9.983515712383079
9.983780804441421
9.985220678743138
9.991384509931907
1251.775120356298
1641.454697308357
532.6260780550988
403.4522702410742
225.3606747660421
185.6083129346189
131.6725870608258
108.0431108069871
86.95636340752186
72.62365829616252
60.92709547026848
53.03889927917317
45.30221405680619
40.48942715857334
35.62435248523671
32.17941958754999
29.15607976949653
26.52039741119135
24.59071000994891
22.52563321168455
21.23057392118768
19.66273529968267
18.714411056621
17.56297940598741
16.82078774634509
15.97931941789968
15.36895299557601
14.75471451192153
14.24585540395628
13.77758088841279
13.35799982191578
12.98865379639959
12.64641518922316
12.34822997593747
12.07266175506353
11.83186040576596
11.61415114016575
11.42165603469498
11.25105292037737
11.09881326066048
10.96468010188749
10.84568983212614
10.73878677619307
10.65072423035942
10.57473918976233
10.50720616265858
10.4510645868959
10.39893342801253
10.35522395154554
10.31880732773959
10.28801027215884
10.26202877340063
10.23619791797771
10.20919461836089
10.17040395474552
10.12293985774707
10.07553113849221
10.03677281905132
10.01085932808541
9.996350953390337
9.989093763008187
9.98477556729622
9.983753792563384
9.983530514596938
9.983480615302119
9.983470007389746
9.983467967267702
9.983467604898017
9.983467524011525
9.983467476297927
9.983467452986918
9.983467439581958
9.983467451456965
9.983467604983009
9.983468834926384
9.983477573738993
9.983534840899265
9.983868933291816
9.985523777403559
9.991946675061348
1246.178596747342
1651.965803178247
532.0875502384217
394.2543765997531
228.2088616254692
182.9892108503084
131.9601619416989
106.5987300299617
85.31406990160183
71.13452270769349
59.21637524222739
51.77128750470001
43.98532958703322
39.6687747991482
34.56572480109011
31.59811235638112
28.25942235648343
25.98829885938319
23.86768646709541
22.03117971736459
20.69758027433739
19.21814383088653
18.32426086867414
17.1887645607728
16.52808884412283
15.68280404649286
15.13473497001529
14.52622884587287
14.05224850663681
13.5963622722582
13.19964549157267
12.84758004524756
12.52243547475332
12.23985195760461
11.97812084412365
11.74905859598456
11.54239036110683
11.35822504138003
11.19605979488516
11.05310448370236
10.92435949728059
10.81178464987637
10.71370032819465
10.62819555323038
10.55886527928302
10.49122772868455
10.43847222245586
10.39135617614212
10.34727800926728
10.31272033522732
10.28398168954108
10.25750491433507
10.23247242489028
10.2001941344119
10.15775104495278
10.10873062921368
10.06286661504234
10.02761946031716
10.00540129759139
9.993659635998934
9.987341957218463
9.984285000892745
9.983646261548564
9.983505924043365
9.983475175393815
9.983468921531481
9.983467776365231
9.983467572096723
9.98346751982632
9.983467475043428
9.983467457794088
9.983467438411269
9.983467478178149
9.983467763076055
9.983469705947124
9.983482589681815
9.983560349107222
9.983976496073709
9.985860224476058
9.992505159048509
1242.287011043051
1637.177454289062
527.6497968867144
385.2413021514511
229.6344765712977
179.0057180407875
130.4489530759033
103.8834856008147
82.93555809476021
69.23000703528642
57.75240569832631
50.32873111562979
42.75696688078548
38.61982528089401
33.4141905071977
30.74445865718098
27.23241151458773
25.34989025325677
23.05097969580626
21.52606208136771
20.09866411228687
18.79941229101853
17.90525647220376
16.82695875529872
16.218152835876
15.37569036313341
14.88541962444238
14.28352004837438
13.85086089860725
13.41199909050511
13.03754028731433
12.70316422737947
12.39477161526265
12.12819346516963
11.8797572354229
11.66389276433326
11.46955764122247
11.2957654434349
11.14174947534184
11.0056310412668
10.88675428222201
10.78029308465058
10.68818123328145
10.60582857380649
10.53867292045601
10.47846833032163
10.42591777559239
10.38067254063732
10.34262267191295
10.30587267179127
10.28021006383497
10.25449135507056
10.22738083104887
10.18910660753037
10.14345422136217
10.09401890617317
10.05062632717113
10.01935826179249
10.00067389769579
9.991389019286663
9.98584174773789
9.983969227168835
9.983575946798991
9.983490014667503
9.983471776838675
9.983468270033054
9.98346765448321
9.983467542430224
9.983467517725261
9.98346747133748
9.983467460230976
9.983467453037862
9.983467503768299
9.983467981791765
9.983471041415283
9.983489725542846
9.983593643535187
9.984105493509132
9.986228679056103
9.993053774849988
1239.277194081916
1581.340609989345
522.3982636291183
374.2492578247505
228.3074258250052
174.0815834359911
127.3584350277323
101.6165385550609
80.48712629821406
67.20813515946611
55.92733835916268
48.54702390161808
41.18153633473207
37.13538300888678
32.20680511310096
29.65174066297697
26.29181742212111
24.59788474016612
22.26618929389157
21.01671610259804
19.46197847373723
18.39969339473708
17.41900389378089
16.47515876451796
15.87484129820477
15.0825536943933
14.63295410647098
14.04301298458949
13.65077089646249
13.22427819451908
12.87844287382662
12.56070697837916
12.2694006340411
12.02163096721406
11.78382394463253
11.58228501496996
11.39750732484028
11.23708536302794
11.09148837469104
10.96288285217513
10.84662755381169
10.74855023382968
10.66277836000258
10.58730399665591
10.52015875753025
10.46455297915434
10.41459368762459
10.37170721336721
10.33335152200431
10.30182347893828
10.27498430249334
10.24939429524891
10.2186422258054
10.1766595594004
10.12816612434657
10.07943839540892
10.03930875129673
10.01221037601595
9.996754614749987
9.989401304086302
9.984901748918439
9.983770028687593
9.983531524475151
9.983480177627897
9.983469785134352
9.983467917949152
9.983467608476593
9.983467553681001
9.983467513736596
9.983467476050301
9.983467460324679
9.98346746388537
9.983467579174423
9.983468347596162
9.983473056659093
9.983499634510125
9.983636386455922
9.984257599205753
9.986626074569104
9.993585648347315
1237.009368083349
1550.991470510592
518.6519396070776
361.6256974419548
226.1576805262098
169.5086496218907
123.587425084638
98.41122628789873
77.22560781373882
64.56697354545169
53.4211001101169
46.49483299555209
39.44991250354808
35.64958968832022
30.94044194949513
28.50276120028172
25.378718847454
23.7302443020112
21.53475108989212
20.42203600738645
18.83229259498647
17.99333840353597
16.9250491034239
16.15430247766006
15.5069864360922
14.80625598960507
14.37356022041801
13.81502622924411
13.45760787409806