/*--------------------------------*- C++ -*----------------------------------*\
| =========                 |                                                 |
| \\      /  F ield         | OpenFOAM: The Open Source CFD Toolbox           |
|  \\    /   O peration     | Version:  v1912                                 |
|   \\  /    A nd           | Website:  www.openfoam.com                      |
|    \\/     M anipulation  |                                                 |
\*---------------------------------------------------------------------------*/
FoamFile
{
    version     2.0;
    format      ascii;
    class       volScalarField;
    location    "0.002";
    object      p;
}
// * * * * * * * * * * * * * * * * * * * * * * * * * * * * * * * * * * * * * //

dimensions      [1 -1 -2 0 0 0 0];


internalField   nonuniform List<scalar> 
16000
(
99626.52774365156
99662.39890883952
99668.26709784997
99699.03138369405
99713.90370816404
99739.77712440561
99761.48896168311
99786.2613290208
99811.37051754036
99837.54167791366
99864.8784167299
99893.16920972824
99922.62747025478
99953.17573632616
99984.88850403832
100017.7640224187
100051.8356841873
100087.1122726489
100123.6153208218
100161.3553614816
100200.3474776585
100240.6030308887
100282.1360032216
100324.958925711
100369.0877087708
100414.541224129
100461.3419385873
100509.5217700483
100559.1189001364
100610.1878445436
100662.7949838856
100717.0305147421
100773.0048823925
100830.8613501947
100890.7746155596
100952.9641765905
101017.6972522523
101085.3049893584
101156.1925175271
101230.8652597418
101309.9509364412
101394.248328208
101484.7796295876
101582.8967888605
101690.4352601681
101809.968780725
101945.16014331
102101.2768691117
102286.0093032801
102510.1022085201
102785.2086283458
103113.5289441212
103465.6911341471
103756.0741504989
103847.4610274118
103615.6746544276
103043.5565840418
102260.1591473234
101470.9809394804
100838.6221042487
100419.6772631637
100184.8666241811
100071.8709645506
100024.7196599578
100007.5380943469
100002.0419736178
100000.4923132572
100000.105842603
100000.020332058
100000.0034967449
100000.0005395062
100000.0000748232
100000.0000093463
100000.0000010534
100000.0000001073
100000.0000000098
100000.0000000008
100000
100000
100000
99670.83824627758
99710.05269612138
99715.5381168195
99749.7350283539
99764.64403190378
99793.48927721102
99816.09928017997
99843.10531060162
99869.82706244243
99897.97313871904
99927.18365438349
99957.44073758612
99988.8763829479
100021.4393622296
100055.1900325046
100090.1250543901
100126.2697716207
100163.6250556279
100202.2015034456
100241.9988063613
100283.0191301428
100325.261438213
100368.7270206952
100413.4150123701
100459.3285089846
100506.4720316121
100554.8543948195
100604.4922654472
100655.4095625302
100707.6451764178
100761.251420509
100816.3028798225
100872.8967167083
100931.1609206178
100991.2579492808
101053.3924573118
101117.8201187581
101184.8564102518
101254.8926983216
101328.410629026
101406.0097983103
101488.4383991698
101576.6481250097
101671.8712805008
101775.7620822697
101890.603885728
102019.6589840027
102167.7353338593
102342.2787605873
102554.697247851
102819.5713744941
103145.5851082969
103512.5229004137
103841.1065077167
103987.8514229066
103806.7450339038
103255.8463847889
102453.6670138055
101616.8308750869
100930.6055736082
100468.859457122
100207.3922667056
100080.7688773615
100027.7626870823
100008.4399928679
100002.2735498476
100000.5436691627
100000.1156157945
100000.0219059334
100000.003704813
100000.0005603549
100000.0000759331
100000.0000092361
100000.0000010101
100000.0000000995
100000.0000000088
100000.0000000007
99999.99999999996
99999.99999999994
100000
99719.68143115276
99762.69936761988
99767.61447117639
99805.80908056714
99820.60442821265
99852.87801117243
99876.39510530852
99905.96259906254
99934.44668192546
99964.79545394453
99996.07759789057
100028.5120544512
100062.1318796274
100096.9155763216
100132.9048309598
100170.0931684352
100208.4950412418
100248.1024217519
100288.9136949847
100330.9174767818
100374.1023403834
100418.4546572285
100463.9616028607
100510.6083311497
100558.3833309833
100607.276299486
100657.2810197923
100708.3993020961
100760.6402159998
100814.0286172718
100868.6029942667
100924.4256335366
100981.58155117
101040.1886253678
101100.3989908314
101162.4095546739
101226.4672100739
101292.8812883514
101362.0346106622
101434.40197819
101510.569816724
101591.2695460107
101677.4175387165
101770.1871229232
101871.1152462721
101982.2838211839
102106.6010778683
102248.3486424297
102414.3506369319
102615.8292098809
102868.8474255094
103186.8475090944
103557.8466515111
103910.2469944898
104098.8884004104
103961.1493159239
103431.7898872674
102616.6979357574
101740.5649020302
101008.6061663136
100510.2827489669
100226.1241724917
100088.033368243
100030.1864115171
100009.1363064805
100002.4451616362
100000.5797053759
100000.1219571922
100000.0228070412
100000.0037979756
100000.0005641846
100000.0000748901
100000.0000088981
100000.0000009478
100000.0000000906
100000.0000000078
100000.0000000006
100000
100000
100000.0000000001
99774.24664862672
99821.3345363954
99825.61318240964
99868.16321468138
99882.81631223288
99918.89114179788
99943.35820064679
99975.79884507207
100006.2162868221
100038.9980656778
100072.5706574283
100107.4037480448
100143.4279375117
100180.6489691199
100219.0878809569
100258.7331635002
100299.5856244367
100341.6262812363
100384.8392893201
100429.1999322645
100474.6816727275
100521.2562266879
100568.895091986
100617.5678405958
100667.2469451982
100717.9061979883
100769.5237768903
100822.0862392045
100875.5884170369
100930.0418378528
100985.4733204018
101041.9347854067
101099.502887911
101158.2888719275
101218.440135977
101280.150652501
101343.6659933297
101409.2958625492
101477.4244069662
101548.5285418862
101623.1958274493
101702.1557031518
101786.3127133023
101876.8084018205
101975.1079501579
102083.1511132865
102203.5743515782
102340.1783533592
102499.0687409241
102690.8409583984
102932.074849129
103239.5140480798
103607.9687845448
103973.2763672523
104190.7223673792
104085.0828637426
103571.6452362309
102745.2485313372
101836.9205017595
101068.2048835273
100541.1013484898
100239.5752412367
100093.011037556
100031.7474390869
100009.5478467999
100002.5345653914
100000.5949367851
100000.1236846507
100000.022811653
100000.003738622
100000.0005453751
100000.0000709272
100000.0000082365
100000.0000008553
100000.0000000795
100000.0000000067
100000.0000000005
100000
100000
100000
99834.66431438539
99886.36220350681
99890.02628741182
99937.45451194239
99952.02453013189
99992.29251741897
100017.8584757292
100053.4725174031
100086.0503602539
100121.5048411687
100157.6157363527
100195.0849932168
100233.752535463
100273.6429349251
100314.7558831504
100357.0714315355
100400.5737392692
100445.2299864921
100491.0074343239
100537.8650789538
100585.7591886094
100634.6442208169
100684.4739591277
100735.200617306
100786.7791200213
100839.1664645039
100892.3247686232
100946.2256340246
101000.8507118414
101056.1998713677
101112.290931999
101169.1688100501
101226.9061779318
101285.6126449774
101345.436942164
101406.5767321417
101469.2837750859
101533.8757670394
101600.7464028013
101670.3825376201
101743.3810161929
101820.4770967216
101902.573803504
101990.7954504768
102086.5620216526
102191.716049335
102308.6956472785
102440.9089052551
102593.7928834563
102777.1904956412
103007.6871282886
103304.2181620395
103666.6957359623
104036.8264013449
104270.5331998965
104183.2690346258
103676.161209776
102836.8600206867
101902.2570140637
101106.2666760192
100559.3149171836
100246.7235937853
100095.2735280361
100032.2947090675
100009.6297385453
100002.5306133373
100000.5870804401
100000.1204216256
100000.0218740327
100000.003524102
100000.0005043546
100000.0000642176
100000.0000072852
100000.0000007374
100000.0000000667
100000.0000000053
100000.0000000004
100000
99999.99999999996
100000
99902.6157520351
99959.0756250728
99962.0976867422
100014.6304692371
100029.2078706193
100073.9098197945
100100.7940876438
100139.8160915287
100174.8383073722
100213.2123479346
100252.1488422477
100292.5233793728
100334.1067765359
100376.9279008164
100420.9639547601
100466.1813242081
100512.5439816755
100560.0014980745
100608.5010192705
100657.9819352611
100708.3806715218
100759.6316359309
100811.6686406362
100864.4247350771
100917.835973696
100971.8420996119
101026.3894137457
101081.4357425325
101136.9516906001
101192.9284956768
101249.3789541881
101306.345829086
101363.9034948206
101422.166381271
101481.2916574457
101541.4882780135
101603.0220817783
101666.2266508534
101731.5126708309
101799.3835247888
101870.4508166132
101945.4601614035
102025.3180240203
102111.1399017362
102204.3179686228
102306.6311241731
102420.378558291
102548.668904786
102696.3931096031
102872.7246975679
103094.0843854672
103380.7723337147
103735.9733129111
104104.8382435407
104342.8551036648
104258.8810276148
103745.9765726109
102890.0008378172
101934.2449136148
101120.8377259699
100563.7422449292
100247.0182697839
100094.6191631364
100031.7700786089
100009.3710840604
100002.4326358588
100000.5566490007
100000.1124464003
100000.020082354
100000.0031756299
100000.0004452724
100000.0000554406
100000.0000061382
100000.0000006051
100000.0000000532
100000.0000000041
100000.0000000002
100000
99999.99999999994
100000
99976.97096626033
100038.9406038031
100041.3906946488
100099.7112953556
100114.5313657198
100164.1023760892
100192.7493474683
100235.4791827416
100273.3899597341
100315.0073358587
100357.1415104284
100400.7544167004
100445.5782754603
100491.6315376374
100538.8685971575
100587.2371502412
100636.6777002896
100687.1181962871
100738.4821603496
100790.6859028571
100843.6429181432
100897.2647647678
100951.4630891413
101006.1502668925
101061.2428567685
101116.6637242504
101172.3448891951
101228.2330450995
101284.2916125315
101340.5081292044
101396.8962879378
101453.5035316626
101510.4134459972
101567.7533470791
101625.6972170389
101684.4737939131
101744.3713072205
101805.7471077233
101869.0359455803
101934.7637735834
102003.561838725
102076.1902030813
102153.5631326846
102236.7942162179
102327.260810881
102426.7023438412
102537.3229720667
102662.0136895983
102805.2666810269
102975.7800846809
103189.8437600052
103468.48242864
103816.2766617912
104178.9394884974
104409.7227412335
104313.2747726527
103781.1551710176
102903.751916025
101931.7945148807
101111.2055600058
100554.1039718018
100240.4299663147
100091.092740115
100030.2176697052
100008.7951910102
100002.2500494338
100000.5067221979
100000.100596929
100000.017629844
100000.0027312784
100000.0003745713
100000.0000455353
100000.0000049135
100000.0000004712
100000.0000000402
100000.0000000031
100000.0000000002
100000
100000
100000
100058.6435561731
100126.9609845461
100128.8972960496
100193.727958144
100209.1158943286
100263.9185196701
100294.8982340031
100341.5810224717
100382.8954256418
100428.0957399536
100473.8291153427
100521.0396060307
100569.4493954565
100619.0516435342
100669.7753544776
100721.5432004276
100774.2676054376
100827.8497029762
100882.1848912672
100937.1622872376
100992.6687706462
101048.5902483678
101104.814291312
101161.2318128955
101217.7404882953
101274.2482202313
101330.6762754698
101386.9651232354
101443.0773139124
101499.0042557131
101554.7690451216
101610.43313673
101666.099071541
101721.9170043845
101778.0875248068
101834.8685494268
101892.5794049061
101951.6090295669
102012.4229793866
102075.5754203587
102141.7219355424
102211.6412454745
102286.2599872486
102366.6962893694
102454.3228792743
102550.8563287192
102658.4351684534
102779.7970196073
102919.1803042001
103085.0467519988
103293.6902702725
103566.3162026785
103906.9943571491
104258.8861431417
104470.9201886897
104345.9477291146
103780.9989788175
102877.6663667787
101895.0166452909
101077.9105090013
100531.0352992078
100227.4476215832
100084.9840515802
100027.7745053666
100007.9560351508
100002.0008213182
100000.442389356
100000.0861125348
100000.0147756937
100000.0022378712
100000.0002995608
100000.0000354865
100000.000003725
100000.0000003469
100000.0000000287
100000.0000000021
100000.0000000001
100000.0000000001
100000
100000.0000000001
100149.6146382178
100224.8114848104
100226.0900141909
100297.8666125115
100314.3109934318
100374.535005428
100408.5478550858
100459.3778360917
100504.6704108291
100553.8261879031
100603.5908056506
100654.7894726316
100707.1520080421
100760.6326138859
100815.129219743
100870.5318109848
100926.7186267517
100983.5577074506
101040.9110704843
101098.6361088531
101156.5894443239
101214.6291087635
101272.6178217258
101330.4259098031
101387.9350411446
101445.0427511398
101501.6661190566
101557.7476107526
101613.2585778543
101668.2052319989
101722.6317422613
101776.6257438528
101830.3208629325
101883.9018782848
101937.6069926977
101991.7332626945
102046.6397786107
102102.7543253322
102160.5791125364
102220.7011365006
102283.804021724
102350.6884772684
102422.2971516447
102499.7577099246
102584.4454779391
102678.0643771642
102782.7044064483
102900.9975628994
103037.0641453255
103199.382970482
103404.4176340057
103673.0038029918
104006.7019596438
104342.8947225187
104524.2414319668
104354.6951618691
103744.1507404287
102811.8513381173
101825.2636782693
101022.7325273864
100496.0383715962
100209.0341649085
100076.7899318168
100024.6534281005
100006.9306470356
100001.7086782329
100000.3699323317
100000.0704166367
100000.0117993166
100000.0017426308
100000.0002271215
100000.0000261544
100000.0000026644
100000.0000002404
100000.0000000193
100000.0000000014
100000
100000
100000
100000.0000000001
100249.4444889866
100332.3347599145
100333.6680310386
100412.9364181867
100431.1025363915
100497.0220661688
100534.9687980668
100590.2041154492
100640.1447133146
100693.7158534542
100747.9967963221
100803.6199764861
100860.327237351
100918.0232460893
100976.5671281797
101035.8078541496
101095.5823627598
101155.7188117245
101216.0404549454
101276.3688044332
101336.5277167746
101396.3468992893
101455.6659796744
101514.3387329821
101572.2374092105
101629.2579420457
101685.3241192704
101740.3930606416
101794.4588217493
101847.5572525376
101899.7686540583
101951.2217513125
102002.0953709326
102052.6218852457
102103.0884749543
102153.8408885066
102205.2855537844
102257.8947288121
102312.2111525089
102368.8571441407
102428.5459258602
102492.1014372052
102560.483855637
102634.8330302325
102716.5308179565
102807.2728083548
102909.1077696839
103024.5994589617
103157.8842532595
103317.7171760242
103520.8668278064
103787.1183443491
104113.3247511905
104427.8491472359
104565.7314269891
104335.8941081784
103668.8836992063
102707.1584007349
101725.1540940485
100948.58986719
100451.3481423963
100186.5174191762
100067.152792649
100021.1140156515
100005.8077265876
100001.3994940776
100000.2958037855
100000.054894763
100000.0089559614
100000.0012859389
100000.0001626789
100000.000018154
100000.000001789
100000.0000001559
100000.000000012
100000.0000000008
100000.0000000001
100000
99999.99999999996
100000
100359.092755663
100450.781509041
100452.7279242807
100540.1720560271
100560.9703660801
100632.8184951463
100675.803833802
100735.7710192502
100791.0805926174
100849.6108524859
100908.9314064359
100969.4449155275
101030.894536216
101093.1256460733
101155.9482281223
101219.1607342818
101282.5507671371
101345.8998137841
101408.9877380743
101471.5976747672
101533.5209281923
101594.5620322549
101654.5437812917
101713.3126136761
101770.7435254938
101826.7454716424
101881.2655461921
101934.293567301
101985.8649651563
102036.0640016963
102085.025138651
102132.9349955059
102180.0325124822
102226.610370152
102273.0148791083
102319.6480277482
102366.9685421659
102415.4957776741
102465.8136797792
102518.5792233486
102574.5338078717
102634.5230778495
102699.5237245977
102770.6878598135
102849.4043919954
102937.3592178177
103036.5600147316
103149.5388560944
103280.5955074431
103439.0199771255
103641.9199180678
103907.0803626826
104224.1481255057
104509.3758541857
104589.9319687531
104284.9505854682
103553.6040904517
102565.5004436902
101598.5933974215
100859.3764056241
100399.7363711039
100161.447549684
100056.7827406484
100017.4282499298
100004.6753722835
100001.0975947492
100000.2257073677
100000.0406990941
100000.0064417875
100000.0008958303
100000.0001095692
100000.0000117991
100000.0000011198
100000.0000000938
100000.0000000069
100000.0000000005
100000.0000000001
99999.99999999999
99999.99999999999
99999.99999999997
100480.3580988141
100581.9885060182
100585.0583011685
100681.2595691941
100705.890012308
100783.7870913424
100833.0802048787
100898.2218752441
100959.6387871553
101023.748957891
101088.6568952796
101154.5314575455
101221.0944964579
101288.1212217644
101355.3600426984
101422.5485605275
101489.4170568197
101555.6949334096
101621.1166318099
101685.428386535
101748.3944385635
101809.8036333651
101869.4753662579
101927.2656545473
101983.072128047
102036.8388515078
102088.5595679277
102138.280571115
102186.1018086528
102232.1777356811
102276.7165103592
102319.9794741734
102362.2792773263
102403.9791604136
102445.4913632239
102487.2777108005
102529.849914393
102573.7727618855
102619.6680183534
102668.2229408241
102720.202447233
102776.4695961236
102838.0141386782
102905.9980576401
102981.8141767041
103067.1314528269
103163.9130501156
103274.7074353053
103404.1524774252
103562.3135331819
103766.476938594
104031.0671618059
104335.6908641403
104581.8300401551
104590.1862455832
104196.9310164195
103397.5286907444
102390.2249957469
101450.7586586811
100759.7367343522
100344.2747146943
100135.4383556421
100046.3765948503
100013.8476200259
100003.6102521511
100000.8226228165
100000.1639574427
100000.0286073586
100000.0043734565
100000.0005861926
100000.0000689597
100000.0000071241
100000.0000006471
100000.0000000517
100000.0000000036
100000.0000000002
100000
100000.0000000001
99999.99999999996
99999.99999999994
100614.3125821718
100727.3825529567
100732.2991982941
100837.9914204544
100868.007964446
100952.1653277118
101009.1656885974
101080.1422954341
101148.4267123706
101218.8041564287
101289.854073673
101361.528477418
101433.4993136414
101505.4589518438
101577.0808641407
101648.0321614031
101717.9801588862
101786.6010870599
101853.5880575841
101918.6597608823
101981.5680934008
102042.105839389
102100.1129518246
102155.4823188212
102208.1637009512
102258.1667424469
102305.5619159782
102350.4805418483
102393.1129328568
102433.7061243166
102472.5602033524
102510.0250720618
102546.4963882194
102582.4129745301
102618.2540745835
102654.5391094241
102691.8278716154
102730.7238288407
102771.8787813627
102816.0022520088
102863.8750345842
102916.3708553742
102974.4869934532
103039.390418107
103112.4703033428
103195.3657138518
103289.9941771919
103398.9950935064
103527.554700674
103686.6928191339
103893.4004878249
104156.8487752264
104443.502978192
104638.3195198954
104559.0948089176
104067.3660199908
103201.4106793106
102186.378291201
101287.9353597417
100654.7408202789
100288.057641966
100110.0029570105
100036.5429098948
100010.5759741397
100002.6691729334
100000.587848623
100000.1130381563
100000.0189887402
100000.0027877822
100000.0003578987
100000.0000401954
100000.0000039516
100000.0000003403
100000.0000000257
100000.0000000017
100000
99999.99999999996
100000
99999.99999999999
100000
100762.543350621
100889.111991452
100896.8752276616
101013.0148010603
101050.2253417976
101140.9404509621
101207.0532927855
101284.7376873841
101360.6471353892
101437.9899792035
101515.6879751496
101593.4939387178
101670.998286081
101747.7959887976
101823.4738889757
101897.623301594
101969.8500207592
102039.7856642338
102107.0978461001
102171.5004371259
102232.7619326279
102290.7130442637
102345.2518628256
102396.3476207893
102444.0417558095
102488.4473975239
102529.7463845259
102568.1852151836
102604.0692661846
102637.7569376225
102669.6529345288
102700.2025934349
102729.8861164113
102759.2149042378
102788.7285142915
102818.99459914
102850.6099457024
102884.2048478308
102920.4493496476
102960.0641461623
103003.8358786674
103052.6402839129
103107.4748009516
103169.5036126136
103240.0995601675
103320.8548561605
103413.6525804206
103521.3400816573
103649.8904833863
103811.3185463836
104021.3924017345
104281.5436600657
104541.9684776051
104670.8718840202
104489.2085784586
103893.2043602205
102968.1996077733
101960.7791124915
101117.1878613763
100549.4863993063
100233.922288036
100086.4104788761
100027.7456460074
100007.7518925397
100001.8855660379
100000.3994013872
100000.0736828959
100000.011839005
100000.0016566756
100000.0002018629
100000.0000214126
100000.0000019765
100000.0000001587
100000.000000011
100000.0000000005
100000
99999.99999999991
99999.99999999996
100000
100000.0000000001
100928.9595429515
101070.8114914918
101082.1791311401
101209.3241650374
101256.0717753396
101353.7795501399
101430.3712058455
101515.8496972989
101600.1397729872
101685.0858782701
101769.7941592068
101853.8290455365
101936.6719278387
102017.8099897563
102096.7402415226
102172.9846770955
102246.103917632
102315.7110113334
102381.483083685
102443.1717497285
102500.6103689988
102553.7192176249
102602.507049836
102647.0703233036
102687.5890745637
102724.3209921419
102757.5930864917
102787.7927728862
102815.3578905879
102840.767566939
102864.5331606012
102887.1912044313
102909.2971600463
102931.4220130118
102954.1502319464
102978.0811146229
103003.831711261
103032.0431287962
103063.388924075
103098.5878009621
103138.4207203063
103183.7554914818
103235.5807509469
103295.0468480062
103363.4923412103
103442.4466126335
103533.7963528754
103640.7681943701
103770.3555069606
103935.3534830407
104148.7914136512
104401.3312604458
104624.1982637336
104670.8569511675
104374.0015516239
103673.8434839152
102703.517629703
101721.8176166535
100945.877338488
100448.6785122558
100184.2074984574
100065.5859992847
100020.2743228406
100005.4439573416
100001.2696907311
100000.2571192912
100000.0451810253
100000.0068830457
100000.0009080205
100000.0001035596
100000.0000101882
100000.0000008619
100000.0000000623
100000.0000000038
100000.0000000001
99999.99999999993
99999.99999999999
99999.99999999994
99999.99999999999
100000.0000000001
101114.8679796626
101274.9877983871
101291.3339671106
101430.7852879987
101489.778682754
101595.4489072562
101683.7816841886
101778.2226709447
101871.5379910434
101964.4887007442
102056.224296646
102146.1263472516
102233.5507348806
102317.8784956297
102398.531361905
102474.9906036389
102546.8135302341
102613.6480515886
102675.2432584058
102731.4568186864
102782.2575232007
102827.724371167
102868.0410867817
102903.4879473418
102934.4303055205
102961.3059590466
102984.6110345371
103004.8865716166
103022.7053697836
103038.6610553676
103053.358468454
103067.4070811673
103081.416108412
103095.9930178241
103111.7439188022
103129.277440083
103149.2103402793
103172.1762046724
103198.8360781131
103229.8928026952
103266.1096378401
103308.3360968589
103357.5417598407
103414.8485492743
103481.5394191948
103559.0752844568
103649.4283884717
103756.4292859222
103888.2487043174
104057.8453249635
104273.3198415186
104511.2084281933
104682.1720096024
104629.7599170613
104209.0410174745
103411.9856491318
102415.6997812056
101478.9037806124
100781.0379232906
100356.2242051389
100140.5764835276
100048.0619014532
100014.2418935159
100003.6565906364
100000.812698055
100000.1561378215
100000.025879474
100000.0036905346
100000.0004510806
100000.0000469911
100000.0000041366
100000.0000003033
100000.000000018
100000.0000000009
99999.99999999993
100000
99999.99999999999
99999.9999999999
99999.99999999999
100000
101326.0488857871
101506.6313718254
101531.2188889743
101683.2558887222
101757.307006508
101872.0223372283
101973.0384505094
102077.3882032478
102180.0285995086
102280.8840340027
102379.0293282769
102473.6667643972
102564.0309145174
102649.4254667656
102729.2458731598
102802.9998430671
102870.3230449063
102930.9898171355
102984.917439337
103032.1650247201
103072.9261761278
103107.5175847552
103136.3631849224
103159.9765532334
103178.9413794737
103193.8926494613
103205.4982638001
103214.4433318447
103221.4164713659
103227.0997837582
103232.1613014385
103237.2511813905
103243.0001290949
103250.0213212673
103258.9143136129
103270.2720923964
103284.6896004374
103302.774695302
103325.1605284901
103352.5209915379
103385.5904567752
103425.1902284205
103472.2595555441
103527.8743567473
103593.241722455
103669.7726110515
103759.6648110712
103867.6040680799
104002.9073243712
104177.5297741493
104391.8058186253
104604.8981456579
104707.2481893311
104540.354368646
103993.255778663
103114.1754819048
102115.3808362974
101241.6605886039
100628.7475226188
100274.9325014281
100103.9415696161
100033.9897054754
100009.6085570489
100002.3447472462
100000.4927814393
100000.08889789
100000.0137010263
100000.0017913938
100000.0001965147
100000.0000177415
100000.0000012681
100000.0000000648
100000.0000000015
99999.99999999987
99999.99999999996
100000
99999.99999999991
99999.99999999991
99999.99999999997
100000
101567.9870878563
101771.7774798741
101807.6698084506
101973.0764697763
102064.9825082553
102190.2035589625
102304.5844423075
102419.3779366491
102531.0303459437
102638.832020866
102741.7211455178
102838.7573354724
102929.1102370444
103012.0917810941
103087.1795154699
103154.032362207
103212.4978177061
103262.6106088006
103304.5826299375
103338.7865029299
103365.7330960707
103386.0464499932
103400.4364639688
103409.6727019044
103414.5591996482
103415.9128765454
103414.5448811243
103411.2466359913
103406.7794128831
103401.8684891092
103397.2003449579
103393.4236040591
103391.15216302
103390.9713224344
103393.4455304791
103399.1284739254
103408.5740320183
103422.3487073822
103441.0448483461
103465.2965717545
103495.8001606396
103533.3401010353
103578.8133798452
103633.2307619295
103697.7124494845
103773.6778281358
103863.7499106051
103973.6857824538
104113.5866106409
104292.589297275
104499.9791669506
104675.0676268789
104691.1331311395
104398.1570427188
103730.0021152819
102790.7594958243
101814.5912813298
101018.9946775206
100493.6033112244
100206.3693378128
100074.4951571487
100023.2015299316
100006.222766466
100001.432681132
100000.2818063028
100000.047024089
100000.0065836007
100000.0007588513
100000.0000693633
100000.0000045695
100000.000000138
99999.9999999869
99999.99999999738
99999.99999999965
99999.99999999997
99999.99999999994
99999.99999999996
100000
100000.0000000001
100000
101845.4279204896
102077.0734057332
102128.0446206945
102308.4100383273
102420.8553077689
102558.0549092198
102685.8602606242
102810.650699544
102929.7591883025
103042.0351556555
103146.3114797124
103241.6174917562
103327.201357349
103402.5545676618
103467.4243818536
103521.8122988104
103565.9600461113
103600.3250232003
103625.5473190885
103642.412690176
103651.8131998465
103654.7099413074
103652.0982170189
103644.9782943061
103634.3308409879
103621.0987909894
103606.1741054776
103590.3902889106
103574.5189475105
103559.2707241777
103545.2989229993
103533.206043959
103523.551853166
103516.8634481022
103513.6462048805
103514.3959766414
103519.6113282955
103529.8062412059
103545.5231855821
103567.3490483162
103595.9358823818
103632.0245205862
103676.4572003755
103730.1623091751
103794.1824786744
103870.0563043979
103961.0705991658
104074.135529403
104219.3042347629
104400.4525594356
104592.5021636457
104714.0193548092
104627.2701202711
104202.8497241957
103427.4818926502
102454.996287536
101525.3599851192
100818.1067846036
100378.3462148389
100150.8580743599
100051.819552807
100015.3002229871
100003.8680661382
100000.8322600559
100000.1509861658
100000.0227447542
100000.0027660423
100000.0002549312
100000.0000144058
99999.99999976999
99999.99999982661
99999.99999997571
99999.9999999978
99999.99999999994
99999.99999999993
99999.9999999999
100000
100000.0000000001
100000.0000000001
100000
102170.0369995376
102433.2456852176
102504.0069844383
102699.9765878605
102834.8816823183
102984.6382463191
103124.4506776575
103256.8818799718
103379.7325577045
103491.6495054947
103591.5280240714
103678.6021548352
103752.4640365612
103813.062984086
103860.6855334049
103895.9173051534
103919.5926198581
103932.7376062198
103936.5113669271
103932.1511827082
103920.923213274
103904.0824683969
103882.8408158706
103858.3445781721
103831.6592563665
103803.7617250909
103775.5374999911
103747.783035903
103721.2111559483
103696.4594538271
103674.1002223985
103654.6518696283
103638.590868189
103626.3644756368
103618.4034735596
103615.1349778369
103616.9945107375
103624.437733358
103637.952677477
103658.0757049868
103685.4119240625
103720.6532481161
103764.5748896653
103818.0128829033
103881.9741789315
103958.2811749017
104051.110126597
104168.3509437415
104318.625741532
104497.6763269249
104663.3234065151
104714.8447859969
104512.4511301313
103959.323774084
103098.349097191
102121.5565875795
101258.2874431748
100643.8127641295
100283.8064928911
100107.6703047165
100035.0713656962
100009.765899459
100002.3086006733
100000.4581814898
100000.0749188582
100000.009730941
100000.0009173888
100000.0000422245
99999.99999564029
99999.99999870057
99999.99999982606
99999.99999998424
99999.99999999903
100000
100000
99999.99999999999
100000.0000000001
99999.99999999991
100000
99999.99999999983
102552.0790394834
102852.5755030888
102948.453374824
103160.1188805988
103317.6097599131
103478.5531144775
103626.3604597105
103761.0161623756
103880.6638925981
103984.124027963
104070.7270867337
104140.3280861484
104193.2768321829
104230.3553968009
104252.6968745308
104261.6935006587
104258.9049915119
104245.9751486771
104224.5602895903
104196.2736784192
104162.6440381582
104125.0890191089
104084.899505898
104043.2341403441
104001.1201994854
103959.4600883921
103919.0408747177
103880.5464532868
103844.5708726256
103811.6325792935
103782.1887278884
103756.6494884902
103735.3919162066
103718.7734848829
103707.1448624898
103700.8617402647
103700.2953808862
103705.8425393382
103717.9368409237
103737.0650052595
103763.7856484182
103798.7375441563
103842.6180933212
103896.1759385782
103960.4654952054
104037.793083781
104133.3578943485
104255.494159274
104409.4999954382
104580.0765045457
104706.4956567015
104672.9398462281