/*--------------------------------*- C++ -*----------------------------------*\
| =========                 |                                                 |
| \\      /  F ield         | OpenFOAM: The Open Source CFD Toolbox           |
|  \\    /   O peration     | Version:  v1912                                 |
|   \\  /    A nd           | Website:  www.openfoam.com                      |
|    \\/     M anipulation  |                                                 |
\*---------------------------------------------------------------------------*/
FoamFile
{
    version     2.0;
    format      ascii;
    class       surfaceScalarField;
    location    "0.002";
    object      phi;
}
// * * * * * * * * * * * * * * * * * * * * * * * * * * * * * * * * * * * * * //

dimensions      [1 0 -1 0 0 0 0];
oriented        oriented;


internalField   nonuniform List<scalar> 
31760
(
-0.0004825458314369807
-0.03401749293335047
0.03455143821592693
-0.0009905550925919759
-0.03591448204972847
0.03648376298248313
-0.001562935115711047
-0.03741848945732736
0.03806412797090571
-0.002121290144154277
-0.03922862993478961
0.03986540850889321
-0.002735362190583197
-0.04098554479586377
0.04168535460351479
-0.003359444387152606
-0.04290971679424364
0.04362457799303871
-0.004020312159161162
-0.04489688712570577
0.04565511154505987
-0.004706772318667199
-0.04698513870054546
0.04777467680713231
-0.005427451340892298
-0.04916940751887931
0.04999965370945839
-0.006180595677256076
-0.05144864032736455
0.05231759979009817
-0.006969446543308194
-0.05383375864410994
0.05474492584522531
-0.007794709684735784
-0.0563276272802509
0.05728155923233429
-0.008658129480319883
-0.05893836886502019
0.05993683848604948
-0.009561057491637439
-0.06167157926052289
0.06271586865548583
-0.01050528558138147
-0.0645321497258452
0.06562416284890583
-0.01149260284685791
-0.06752523525994
0.06866699948418004
-0.01252515750988046
-0.07065474857588776
0.07184888576320547
-0.01360499995225147
-0.07392515622874124
0.07517441716146715
-0.01473429668123583
-0.07734166787684842
0.078649114527046
-0.01591493901994911
-0.08090950951615322
0.08227808822170346
-0.01714868903311759
-0.08463631388706112
0.08606890185581273
-0.01843706495310327
-0.08852858919531682
0.09002783667631904
-0.01978138245599771
-0.09259561532273014
0.09416392796562235
-0.02118285060273912
-0.09684506031980222
0.09848470828931491
-0.02264255166020926
-0.1012866699296823
0.1029997791453954
-0.02416150206033678
-0.1059288456526806
0.1077175194442282
-0.02574062353059682
-0.1107818298897609
0.1126481495352065
-0.02738068102788386
-0.115854945116793
0.1178009710503942
-0.0290823079112393
-0.1211593283157987
0.1231871443342452
-0.03084580619601703
-0.1267053725504969
0.1288169414795028
-0.03267125891630853
-0.1325054506220394
0.1347027406451571
-0.03455821909747245
-0.1385711890959915
0.1408559152890709
-0.03650591550437587
-0.144916415791644
0.1472902596745537
-0.0385128596781695
-0.1515542699861999
0.1540185357203124
-0.04057709000709134
-0.1585003893626929
0.1610562681094637
-0.04269582748161944
-0.1657699772061368
0.1684182734793203
-0.04486540885014191
-0.1733808946843275
0.1761220388424483
-0.04708103426892219
-0.1813507425666156
0.184184716744319
-0.04933659152229984
-0.1896992612308568
0.1926256478967938
-0.0516241557728172
-0.1984455062502444
0.2014633228933168
-0.05393374513961323
-0.2076097542120774
0.2107175833911595
-0.05625302376292714
-0.2172116862381206
0.2204078967483711
-0.05856639778743988
-0.2272727425547576
0.2305553154002551
-0.06085457620579938
-0.2378163026199605
0.2411836784753919
-0.06309204509108333
-0.2488696179235919
0.2523202230239317
-0.0652452043290449
-0.2604652405618726
0.2639986542413015
-0.06726757379118811
-0.2726397922224664
0.2762561940665917
-0.06909345934451294
-0.2854370767927198
0.2891374058783423
-0.07062611347183903
-0.29890424751411
0.3026873165112975
-0.07173325380002363
-0.3130982804956535
0.3169573461794274
-0.0722801867615339
-0.3280765436077818
0.3319878143783466
-0.07227120647893188
-0.3438847534899357
0.347797786311426
-0.07210883419600067
-0.3605125410286257
0.3643382251547243
-0.07282248108088415
-0.3778297251880867
0.3814471147849567
-0.07585279906052846
-0.3955777251858915
0.398868950107875
-0.08222116980706767
-0.41348717197372
0.416393352477921
-0.09161698209868518
-0.4315050003220245
0.4340563979000428
-0.1023307338960157
-0.4499327244541702
0.4522191391409138
-0.1122597947722351
-0.4693136024157636
0.4714065448436491
-0.120051635950792
-0.4901378261824729
0.4920505376113971
-0.1254332627916968
-0.5126369264559302
0.5143378661742339
-0.1288283109523809
-0.5368053257651269
0.538238699958747
-0.1308324229703596
-0.5625371407133289
0.5636397568752943
-0.1318999259249221
-0.5897399131348061
0.5904470919485233
-0.1322706213232145
-0.6183780641946452
0.6186227247717774
-0.1320193842539758
-0.6484687151356225
0.6481787197259686
-0.1311258412660715
-0.6800627776131752
0.6791587159718436
-0.129522069515444
-0.7132291486614973
0.7116228494335174
-0.1271159894643371
-0.7480462704197944
0.7456396510395663
-0.1238000720236193
-0.7845987262182381
0.7812827062946778
-0.1194534398891325
-0.8229762572022241
0.8186296076810307
-0.1139415268017745
-0.8632736890423737
0.8577617733150272
-0.1071149155943912
-0.9055911488687323
0.8987645373017579
-0.09880786058854113
-0.9500343723047447
0.9417273172548641
-0.08883661829512561
-0.9967150481248365
0.9867438058265661
-0.07699760257817215
-1.045751190185393
1.033912174467955
-0.06306535379610372
-1.097267536220635
1.083335287438524
-0.04679030469801859
-1.151395975218723
1.135120926120637
-0.02789632315514037
-1.208276005610042
1.189382024067166
-1.26805522674712
1.246236913285249
-0.00046350227367105
-0.03351070581940293
-0.0009475140576726793
-0.03537686487393252
-0.001484008719122354
-0.03681654089547336
-0.00201604054731832
-0.03862695688487979
-0.002588058662166594
-0.04033668109115301
-0.003172993767208245
-0.04224359755418818
-0.003792095473947571
-0.04419032400404658
-0.004434943046032315
-0.04624962287616666
-0.005109985726083785
-0.04839566663206803
-0.005815561656379633
-0.0506386685273661
-0.006554790918282042
-0.05298421948217657
-0.007328502731867136
-0.05543788902730548
-0.008138473615625454
-0.05800662336400909
-0.008986191843118593
-0.06069638477336229
-0.009873484466328172
-0.06351148406526476
-0.01080221139702044
-0.06645689110931267
-0.01177445621495218
-0.06953603829484944
-0.01279224339910216
-0.07275323294852901
-0.01385762698532146
-0.07611349260450317
-0.01497247868485895
-0.07962211692981111
-0.01613852594623588
-0.08328688298247411
-0.01735736053702268
-0.08711447891897187
-0.01863037636994204
-0.09111446203710366
-0.01995894493129146
-0.09529458269243556
-0.02134424907038102
-0.09966479081304416
-0.02278748313616214
-0.1042334359801484
-0.02428962457548922
-0.1090108864666625
-0.02585160801986816
-0.114006369407988
-0.02747405504200158
-0.1192311652095547
-0.02915743404964465
-0.1246956137733235
-0.03090175200419426
-0.1304123189970193
-0.03270674400532241
-0.1363929144358428
-0.03457152151347512
-0.1426515650026475
-0.03649483988485804
-0.1492014500020467
-0.03847466944835357
-0.1560586524757713
-0.04050852155306979
-0.163238445212932
-0.04259281715665417
-0.1707593037217417
-0.04472322015850722
-0.1786389480459894
-0.04689372351711246
-0.1868979129476038
-0.04909696934316409
-0.1955554212138788
-0.0513232458291009
-0.2046325825781839
-0.05356093212152665
-0.2141490951121259
-0.05579543159637369
-0.2241269738875128
-0.05800915664055038
-0.23458926680562
-0.06017942328757075
-0.2455633000119655
-0.06227655949048505
-0.2570808436567697
-0.06425971536919527
-0.2691776515146675
-0.06606961836254882
-0.2818964636810098
-0.06761579749569849
-0.2952832929888167
-0.06876175765071746
-0.3093975753332955
-0.06934594778204353
-0.3243051772812628
-0.06930444092375317
-0.3400738770989634
-0.06894499696090105
-0.3567285308062308
-0.06924004880050903
-0.3741811597267043
-0.07171477699197569
-0.3921885946084693
-0.07761396532699284
-0.4104433799238033
-0.08685085404118058
-0.4288139781697531
-0.09777610275042344
-0.44753680536568
-0.108152169016721
-0.4671440554866054
-0.116427859658016
-0.4881607600626305
-0.1222076849462439
-0.5108626042022301
-0.1258973803100773
-0.5352735560520849
-0.1281327185150075
-0.5613005758691516
-0.1294175776284689
-0.5888558821719794
-0.1300286758710867
-0.6179073384906337
-0.1300634326070837
-0.6484770606850331
-0.1295152440186442
-0.6806226142710423
-0.1283262919464573
-0.7144208801128302
-0.1264137965900776
-0.7499593530646238
-0.1236799544652862
-0.7873326785264911
-0.1200145098869493
-0.8266417201817136
-0.1152946193258834
-0.8679935823451909
-0.1093838267474505
-0.9115019418124636
-0.1021307164634344
-0.9572874826323642
-0.09336738335304827
-1.005478381239894
-0.08290774081802217
-1.056210832720867
-0.07054565783648227
-1.109629619202215
-0.05605290945496169
-1.165888723600247
-0.03917692245038046
-1.225151992614626
-1.287593853261877
-0.0004465951475679424
-0.0330256306183437
-0.0009077829043138365
-0.03486718258500422
-0.00141751668731811
-0.03624728499780664
-0.001921869181674384
-0.03805999400712599
-0.002459262981644195
-0.03972990332926909
-0.003010261401550994
-0.04161955993943052
-0.003591430149021077
-0.04353026981816068
-0.004195880733654306
-0.04556167847546085
-0.004830351625110183
-0.04767221969348354
-0.005494022132077286
-0.04988096572408705
-0.006189538008840411
-0.05218942382716452
-0.006917956448468067
-0.05460515804066055
-0.007681047847363624
-0.05713411877073518
-0.008480525228203025
-0.0597823627285619
-0.00931829789955768
-0.06255371660562707
-0.01019638126521837
-0.06545285482041448
-0.01111687353318613
-0.06848287739375523
-0.01208178058100181
-0.07164797571549837
-0.01309310729022276
-0.07495306645194312
-0.01415262496172535
-0.078403627781723
-0.01526209143585855
-0.0820075259107044
-0.01642307389742678
-0.08577173600955459
-0.01763713407433171
-0.08970593967185328
-0.0189057414716671
-0.09381805342091207
-0.02023030335785762
-0.09811810155055431
-0.0216121253997188
-0.1026144826989619
-0.02305237822724018
-0.1073175934764907
-0.02455205986260623
-0.1122366825733254
-0.02611193783978321
-0.1173830825798052
-0.02773248109775674
-0.1227672214933925
-0.02941381644413371
-0.1284018159873297
-0.03115563392476738
-0.1342986762815024
-0.03295717559110914
-0.1404721400075964
-0.03481714259909886
-0.1469356280227984
-0.03673368771481306
-0.1537054573476268
-0.0387043013291453
-0.1607972020943567
-0.04072569841288541
-0.1682296663525809
-0.04279360238596405
-0.1760209424011304
-0.04490241309138494
-0.1841920194762495
-0.04704491246262716
-0.1927625536776166
-0.04921189958606901
-0.2017541439971759
-0.05139203509345518
-0.211186842955396
-0.05357150054157386
-0.2210830352701916
-0.05573361034846071
-0.2314658963382998
-0.05785747620540354
-0.242362924611226
-0.05991615891238209
-0.253805617242697
-0.06187294155875214
-0.2658294061317048
-0.06367494839089148
-0.2784758923562338
-0.0652385949149822
-0.2917899530676784
-0.06643013320800246
-0.3058306254336614
-0.06707166478020612
-0.3206678335054973
-0.06704820001119782
-0.3363831910550499
-0.06658197989711877
-0.3530291570056969
-0.06657919121597791
-0.3705552761303678
-0.06861368061168738
-0.388743190497866
-0.07411964589026518
-0.4072707495586056
-0.08323153691750952
-0.4259523148941962
-0.0943780499196455
-0.4449638271027436
-0.1052034345519935
-0.4648104461334134
-0.113970586709608
-0.4860322180576155
-0.1201690681812762
-0.5089369136607341
-0.1241876184116534
-0.5335746156265274
-0.1266993333614035
-0.5598672063176947
-0.1282540810270348
-0.5877346427789945
-0.1291625167032805
-0.617150627426356
-0.1295428203603851
-0.648143212048005
-0.1294012179630381
-0.6807767079097518
-0.1286895471311217
-0.7151355100646164
-0.1273340824176718
-0.7513154371433273
-0.1252465578998558
-0.7894203178830391
-0.1223271490849221
-0.8295611479043223
-0.1184645208339954
-0.8718562133666935
-0.1135349314869035
-0.9164315315216277
-0.1074010111114458
-0.9634214030501037
-0.09991036668187331
-1.012969025673886
-0.09089403798817536
-1.065227161414978
-0.08016479729413938
-1.120358859896285
-0.06751527856745493
-1.178538242326935
-0.05271591960620512
-1.239951351575875
-1.304797074286672
-0.0004345377408557954
-0.03255386710276794
-0.0008786905521465991
-0.03437701212040664
-0.001364330206224624
-0.03570614632519465
-0.001846629516165386
-0.03752030280249057
-0.002352765546880982
-0.03916028719251604
-0.002875490927614614
-0.04103042556563486
-0.003422983233609486
-0.04291111338257458
-0.003994517251682979
-0.04491455179867866
-0.004593675299559206
-0.04699265084844804
-0.00522120303588968
-0.04916869613287885
-0.005879059960558003
-0.0514423118217531
-0.006568707096366244
-0.05382193038071988
-0.007291950202918784
-0.05631282545559332
-0.008050793855018031
-0.05892084112830134
-0.008847271857679747
-0.06164945239184085
-0.009683573740877881
-0.06450296548207457
-0.01056181374901552
-0.06748432744699966
-0.01148397809900749
-0.07059768114872389
-0.01245199963191607
-0.07384796419009983
-0.01346755926430472
-0.07724091522782989
-0.0145324312130564
-0.08078445473103966
-0.01564819241963198
-0.08448589482406096
-0.01681656840184659
-0.08835491594757648
-0.01803916493695359
-0.09239962801036622
-0.01931760629098286
-0.09663003913433311
-0.02065334783983801
-0.1010546443940099
-0.02204772572568849
-0.1056838365363814
-0.0235018336103232
-0.1105269408942957
-0.02501653074175872
-0.1155953385406592
-0.02659231776863017
-0.1208996017270732
-0.02822935854294344
-0.1264525561701824
-0.02992734140573407
-0.1322662337238214
-0.03168553481275751
-0.1383551285187757
-0.03350264045530742
-0.1447329473318704
-0.03537686766298714
-0.1514162084654581
-0.03730575449944225
-0.1584208209218221
-0.03928614900163977
-0.1657658488050543
-0.04131389730672276
-0.1734697686812174
-0.04338362610002754
-0.1815539025017799
-0.04548833473693076
-0.1900383251454185
-0.04761916205985881
-0.1989450018961936
-0.04976512455973732
-0.2082943964804383
-0.05191298333100946
-0.2181092468652943
-0.0540468328676753
-0.2284130695307298
-0.05614712816026556
-0.2392336809307887
-0.0581890472716533
-0.2506026604149499
-0.06013943998428658
-0.2625554665085905
-0.06195128996692918
-0.2751329285360938
-0.06354926749417529
-0.2883789305158706
-0.0648066253185995
-0.302350986869418
-0.06553905833928826
-0.3171200323447543
-0.06559505641123178
-0.3327751470214994
-0.06512529732029745
-0.34938812826149
-0.06496782360686941
-0.3669393629737469
-0.06671836500851334
-0.385239306815804
-0.07196034473976178
-0.4039686434065
-0.08101714410146274
-0.4229086842178288
-0.09239178102791369
-0.4421849868734453
-0.1036363130800616
-0.4622688546886525
-0.1128626193199124
-0.4836991240376886
-0.1194685446498477
-0.5068020720687969
-0.1238319458909815
-0.5316483443357224
-0.1266585452138276
-0.558175049931686
-0.1285362217940118
-0.5863125879553691
-0.1298032489697005
-0.6160425908854646
-0.1305947690130755
-0.6474001353064012
-0.1309280469324312
-0.6804563684677178
-0.130763830081314
-0.7153027657027401
-0.1300371363965938
-0.7520427601933906
-0.1286690644695728
-0.7907885050469631
-0.1265700711305089
-0.8316601599407618
-0.1236401651923516
-0.8747861219989298
-0.1197681280780554
-0.9203035689813542
-0.1148304119326335
-0.9683591192350088
-0.1086898754835705
-1.019109562126981
-0.1011943835363168
-1.072722653362599
-0.09217526446642289
-1.129377978966207
-0.08144561292401759
-1.189267893869341
-0.06879842260964496
-1.252598541890248
-1.319590964566426
-0.000418528555466677
-0.03209629055193148
-0.0008468885890616913
-0.0339028865594096
-0.001307043940410499
-0.03519289650010839
-0.001770689778167095
-0.03700284940110981
-0.002247682918780984
-0.03862431709476753
-0.002746751138067365
-0.04047018242186299
-0.003264738428553036
-0.0423274424969758
-0.003808690657427932
-0.04430171791689225
-0.004378082511585002
-0.04635031953044075
-0.004975585217858125
-0.04849468947920124
-0.005602435569888108
-0.05073519901607743
-0.006260565901420894
-0.05307988901512047
-0.006951887961052981
-0.05553368556899862
-0.007678711780830416
-0.05810196677510715
-0.008443232118910824
-0.06078798662326562
-0.00924779235444694
-0.06359568772876679
-0.01009451758259076
-0.06652804311791051
-0.01098536412910515
-0.06958924254066219
-0.01192218352723165
-0.07278436342994964
-0.01290659695060534
-0.07611945431011068
-0.01394039117454259
-0.07960246983369329
-0.01502519941486221
-0.08324104941433629
-0.01616290772956487
-0.08704477472325703
-0.01735527998077893
-0.09102194209934189
-0.01860414346234945
-0.0951824781954434
-0.01991110525968216
-0.0995350052633221
-0.02127764788989159
-0.104089899573349
-0.02270494408988372
-0.1088566188204718
-0.02419391282983037
-0.113846605004439
-0.0257450638411834
-0.1190706242939884
-0.02735856245083413
-0.1245416214848254
-0.02903407276895554
-0.1302718845365062
-0.03077085009274977
-0.1362760665923064
-0.03256758360889758
-0.1425681806135667
-0.03442250308945183
-0.1491649362265574
-0.03633318228768107
-0.156082582835798
-0.03829655111105894
-0.1633404049934341
-0.04030856054432477
-0.1709572275926605
-0.0423640010876382
-0.1789546130514531
-0.04445607590549756
-0.1873529820217224
-0.04657622217173377
-0.1961745722456096
-0.04871384803103574
-0.2054402443086868
-0.05085628472813053
-0.2151730998918969
-0.05298839850956922
-0.2253971172654727
-0.05509179992442438
-0.2361405288344445
-0.05714338091355824
-0.2474351959624095
-0.05911290170786441
-0.2593167749692022
-0.06095837703127469
-0.271825652036583
-0.06261245372473287
-0.2850049192579631
-0.0639568043524732
-0.2989102704750983
-0.06480647079831772
-0.3136118266219378
-0.06498550516895997
-0.3292017206635424
-0.06459078950664621
-0.3457641806666174
-0.0644053098981837
-0.3633035596154017
-0.0660370204240882
-0.3816586073859453
-0.07117937108474628
-0.400523561565732
-0.08029417138507108
-0.4196644092911395
-0.09193417663956581
-0.4391695916170107
-0.1035783224135964
-0.4594757670914746
-0.1132293805904685
-0.4811079941491501
-0.1202265460786351
-0.5043979273816048
-0.1249487927102945
-0.5294301175224855
-0.1281307919522081
-0.5561562688177775
-0.1303895610604862
-0.584519193248242
-0.1320833395306386
-0.6145103008191761
-0.1333597028348844
-0.6461726238797574
-0.1342448282966465
-0.6795841761246498
-0.1347075337630762
-0.7148430660985733
-0.1346912736323288
-0.752059635318959
-0.1341263747753238
-0.7913535149441197
-0.1329334735589446
-0.8328530788898362
-0.1310238120963983
-0.8766957859714115
-0.1282985621896798
-0.9230288192035606
-0.124647837959741
-0.9720098435002287
-0.1199495585334294
-1.023807841556807
-0.1140681872451035
-1.078604024651237
-0.106853342729459
-1.136592823481876
-0.09813827042395736
-1.197982966174848
-0.08773816082089284
-1.262998651493313
-1.331880826070892
-0.0004028256042123148
-0.03165056392211055
-0.0008200428525313604
-0.03343875952582026
-0.001257255988575619
-0.03470389909697543
-0.001707072875716321
-0.03650162440896827
-0.002159413486278917
-0.03811644815038615
-0.002640204559055672
-0.03993237617509174
-0.003134177367183461
-0.04177278439906489
-0.003656428705771007
-0.04371631973388995
-0.004202355599517663
-0.04573798020752321
-0.004776554215189026
-0.04785125538946895
-0.005379773875389462
-0.0500596850405288
-0.006014432322844486
-0.05236986215113896
-0.006682651651225608
-0.05478662376469536
-0.007387039307447103
-0.05731474962162641
-0.008129972795132801
-0.05995739878675667
-0.008913913075583639
-0.06271823585557554
-0.009740988801132219
-0.06560042466351444
-0.01061312619525712
-0.06860830279897878
-0.01153210496548189
-0.07174719201337651
-0.01249953303203262
-0.0750234536634133
-0.01351722247723921
-0.07844506954391996
-0.01458691003193139
-0.08201994106750819
-0.01571063112907661
-0.08575749447325112
-0.01689031221881981
-0.08966617712319221
-0.01812795174965394
-0.09375580177141452
-0.01942528491232991
-0.09803513953334743
-0.02078390051256576
-0.1025145577512232
-0.02220501376695118
-0.1072037020795746
-0.02368956264048672
-0.1121140955184746
-0.02523802848945548
-0.1172567472692071
-0.02685054046379944
-0.1226447338446798
-0.02852670836097624
-0.1282906289108539
-0.03026574801273429
-0.1342092461691689
-0.03206631814243913
-0.1404149189632548
-0.03392665212452459
-0.14692453678952
-0.03584434858423853
-0.1537546840082034
-0.03781640250167007
-0.1609248215706801
-0.03983885379998649
-0.1684540723253212
-0.0419066359165959
-0.1763641412370842
-0.04401315248745498
-0.1846757033589243
-0.04615015123831092
-0.1934111707719194
-0.04830748475952509
-0.2025917607462059
-0.05047311241350073
-0.2122409386434989
-0.05263272738785169
-0.2223832057838262
-0.05476904418537764
-0.2330472540761484
-0.05686045069046453
-0.2442653025016219
-0.05887911867810133
-0.2560732253135685
-0.06078723469337769
-0.2685111368758517
-0.06252430186713935
-0.2816214807824115
-0.06397982527771463
-0.2954581955081055
-0.06497072493129337
-0.310089781034004
-0.06530645680687396
-0.3256088425657356
-0.0650499529398515
-0.342106957281105
-0.06495177402853776
-0.3596058509183428
-0.06663387944819568
-0.377968884974976
-0.07186291217700032
-0.3969093225943703
-0.08117865166291038
-0.416192085482371
-0.09314432551383721
-0.4358824432384576
-0.1051783847000743
-0.456385323576325
-0.1152207923287795
-0.4782029077262934
-0.1225921682771149
-0.5016606123164282
-0.1276886076931619
-0.526850169014502
-0.1312706952784473
-0.5537367657461191
-0.1339749262605228
-0.5822768501011785
-0.1361710298496508
-0.6124731445057261
-0.1380140396690527
-0.6443772321074175
-0.1395367567388421
-0.6780739257893207
-0.1407152121271802
-0.7136674718085811
-0.1415010202209583
-0.7512744043542077
-0.141833644243912
-0.7910209934889557
-0.1416438477527929
-0.8330428914760477
-0.1408540489328571
-0.8774855870259233
-0.1393777350134993
-0.9245051333979153
-0.1371185845502952
-0.9742689939934838
-0.1339694535512595
-1.026956972558763
-0.1298112509902505
-1.082762227212498
-0.1245116997911265
-1.141892374681021
-0.1179239730225613
-1.204570692943414
-0.109885193079467
-1.271037431436408
-1.341551238861369
-0.0003785146846248953
-0.03122459231435955
-0.000783512025786142
-0.03298523596780342
-0.001195676532493133
-0.03424084633684125
-0.001632801271484112
-0.03601485744821793
-0.002062793725420349
-0.03763381248229738
-0.002528564216762711
-0.03941309234994646
-0.003003361426521798
-0.04124167788502268
-0.003509084121916694
-0.04315248499851228
-0.004037966127004963
-0.04514847448283209
-0.004595962314345973
-0.04723043591006049
-0.005183691229589308
-0.0494066411239537
-0.005803927418496
-0.05168163491204203
-0.006459055167887064
-0.05406028455306829
-0.007151900925673396
-0.05654677635081249
-0.007885003290146164
-0.05914427635685834
-0.008660880895048342
-0.06185631139994797
-0.009481657417694094
-0.06468636151559447
-0.01034923631852325
-0.06763899891891362
-0.01126536010867062
-0.07071985338225766
-0.01223168099558721
-0.07393556160110523
-0.01325006512101586
-0.07729412718512525
-0.01432239286440106
-0.08080361661050625
-0.01545083067238539
-0.08447328432902307
-0.01663745379096451
-0.08831168218480355
-0.01788437771193227
-0.09232851457153349
-0.01919342073184748
-0.09653271823556825
-0.02056621465482291
-0.1009346815450122
-0.02200396643502587
-0.1055442867504086
-0.02350757617692201
-0.1103731676102347
-0.02507745433048577
-0.1154326147773128
-0.02671365171909785
-0.1207358516121483
-0.02841569691096981
-0.1262957551193298
-0.0301827444247391
-0.1321272989435587
-0.03201341541711443
-0.1382451375091696
-0.03390594313538359
-0.1446663227684946
-0.03585795625830863
-0.151407751369098
-0.03786651733090168
-0.1584890060365136
-0.0399277621722202
-0.1659294385876014
-0.04203677648691514
-0.1737507889034786
-0.04418719170262835
-0.181973882681635
-0.04637111547489216
-0.1906212036197682
-0.04857892452256229
-0.199714271213906
-0.05079929617285582
-0.2092768961551356
-0.05301882882993499
-0.2193341186984921
-0.05522135017903278
-0.2299150818423279
-0.05738664384642447
-0.2410523478520974
-0.0594889629594248
-0.2527819327171371
-0.06149391434801206
-0.265143715330019
-0.06334641538791301
-0.2781795637822223
-0.06494207812687686
-0.2919419065204802
-0.06610025867658693
-0.3064975441838936
-0.0666240714145534
-0.3219383059391142
-0.0665632066242246
-0.3383594768955627
-0.06666357950494349
-0.3557940880069598
-0.06856979681740998
-0.374124848630392
-0.07408681931453653
-0.3930861281599978
-0.08376613865738833
-0.4124528207866461
-0.09613336752196348
-0.4322799921808735
-0.1085559729749783
-0.4529454356471754
-0.1189607707067528
-0.4749221688740154
-0.1266939949810009
-0.4985197718640117
-0.1321864468807029
-0.5238313312352897
-0.1362215396532476
-0.550834041941159
-0.139444839767763
-0.5794988781126055
-0.1422287490072321
-0.6098407669247375
-0.1447306619368727
-0.6419201546473827
-0.1469877481935835
-0.6758284182619912
-0.1489824611597153
-0.711675376534081
-0.1506743606063403
-0.7495830243322285
-0.1520120108056219
-0.7896834339621568
-0.1529363062238623
-0.8321186100114768
-0.1533808426323208
-0.8770410525141988
-0.1532714106715524
-0.9246145655868327
-0.1525252236612205
-0.9750151810281411
-0.1510500242984851
-1.028432171923803
-0.1487430935837732
-1.085069157927405
-0.1454901585133689
-1.145145309751439
-0.1411641894353187
-1.208896662021468
-0.1356240762379452
-1.276577544633779
-1.348462143737873
-0.0003480258176462886
-0.03082515761168015
-0.0007417064575023883
-0.03254188613683941
-0.00112981686717964
-0.03380293422664714
-0.001557230906335087
-0.03553950444308855
-0.0019699323370099
-0.03717121972583384
-0.002425499305383144
-0.03890725590539464
-0.002888163056023874
-0.04072674824878286
-0.003384100927107586
-0.04260300736473995
-0.003904110223009646
-0.04457303527136119
-0.004454637873707509
-0.04662271982526993
-0.005036611398329592
-0.04876535205406084
-0.005653036055675136
-0.05100340481642903
-0.006306588515773627
-0.05334175974101495
-0.007000254993538064
-0.05578413038435331
-0.007736709090193209
-0.05833377665906526
-0.00851850040309853
-0.06099424412846895
-0.009347763684857223
-0.06376941226924927
-0.01022641772981931
-0.06666414372980381
-0.01115623136582165
-0.06968439599313453
-0.01213896210094871
-0.07283701988319563
-0.01317657222559265
-0.07613003105588591
-0.01427110233193491
-0.07957156873640146
-0.01542482529056761
-0.08317073013716876
-0.01663992396353101
-0.08693613765395211
-0.01791856039684148
-0.09087742513523017
-0.01926256695790926
-0.09500371528129373
-0.02067353827992727
-0.09932546456508357
-0.02215260801366975
-0.1038528302126274
-0.02370057242166185
-0.1085975916664463
-0.02531772448477831
-0.1135713432374272
-0.02700399571319691
-0.1187874682448191
-0.02875881324896587
-0.1242591469415703
-0.03058125885242224
-0.1300015058854904
-0.03246992366737254
-0.1360295010174639
-0.0344230535972401
-0.1423603176561298
-0.03643833200524363
-0.1490111170525206
-0.03851291276879494
-0.1560015332401511
-0.04064306052713313
-0.1633510546347889
-0.0428240528553691
-0.1710813391827616
-0.04504981019383367
-0.1792132513852225
-0.0473128839676131
-0.1877692459455238
-0.04960428187353929
-0.1967710852626549
-0.0519135097324989
-0.2062428923122835
-0.05422816302063936
-0.2162102244487392
-0.05653322062254703
-0.2267026228363849
-0.0588098294795526
-0.2377529160790552
-0.06103412545607094
-0.249397135502858
-0.06317453308194548
-0.261674883468465
-0.06517991619486364
-0.2746274877278108
-0.06694978389522561
-0.2883062085885947
-0.0683055306309768
-0.3027764689762837
-0.06905136043000434
-0.3181288562951609
-0.06924484304485132
-0.3344596976813082
-0.06965743899380393
-0.3518079236526078
-0.07196758043578516
-0.3700700233978999
-0.07798314654883454
-0.3890017142663864
-0.08819731592499511
-0.4083961902926197
-0.1010473223411842
-0.4283092955578196
-0.1138609537509287
-0.449096387385024
-0.1246047317865378
-0.4711970459286998
-0.132695588273887
-0.4948978023078408
-0.1386157779467778
-0.520288487884611
-0.1431671357891721
-0.5473570823077336
-0.1469934322486106
-0.5760894411521885
-0.1504609404177052
-0.6065130830003397
-0.1537245659765229
-0.6386972715399867
-0.1568238182581148
-0.6727395161904001
-0.1597469216615012
-0.7087545722012586
-0.1624612532636748
-0.7468691403639692
-0.1649245056865454
-0.7872202581061355
-0.1670877647403226
-0.8299553624862851
-0.1688958633810744
-0.8752329554043408
-0.1702869455975018
-0.9232234835500081
-0.1711917965531531
-0.9741103300911366
-0.1715330675300407
-1.028090900948632
-0.1712244158561596
-1.085377809601425
-0.1701695566386738
-1.146200168968936
-0.1682612183084184
-1.210805000351718
-0.1653799925054106
-1.279458770436789
-1.352449068431602
-0.0003190281944917225
-0.03045235114071171
-0.0007071835200115331
-0.03210401991403967
-0.001076750125660402
-0.03338526181690084
-0.00149924795479549
-0.03507109631689826
-0.001902330396784123
-0.03672117185702895
-0.002353702449962926
-0.03840887360564289
-0.002812848279600762
-0.04021924105088841
-0.003306919911430266
-0.0420596509270172
-0.00382745989680462
-0.04400174008206612
-0.004380516030984889
-0.0460173688328871
-0.004967727319735792
-0.04812385151963521
-0.005592241230373322
-0.0503220837017782
-0.006257030692875194
-0.05261687002493129
-0.006965197628844938
-0.05501164377764275
-0.007719531110954043
-0.05750983329321919
-0.008522609041415169
-0.06011514488681657
-0.009376617677870389
-0.06283189173332603
-0.01028354667430637
-0.06566524781536442
-0.0112452667904476
-0.06862147667162675
-0.01226369121973992
-0.07170758030956469
-0.01334090894156192
-0.0749315773076281
-0.01447910740209644
-0.07830161731782236
-0.01568062099408671
-0.08182668182932694
-0.01694766919159801
-0.08551545791272266
-0.01828237051677242
-0.08937757059901419
-0.0196864818394355
-0.09342235487468087
-0.02116146640686659
-0.09766039229335528
-0.02270830920197047
-0.1021021389646175
-0.02432763310642738
-0.1067595526424327
-0.0260195684043255
-0.1116445322865618
-0.02778389435372245
-0.1167706254356857
-0.02961992918104257
-0.1221512925893104
-0.03152668784554763
-0.1278017932655486
-0.03350275900879734
-0.1337373390249675
-0.0355464358993826
-0.1399752011881314