/*--------------------------------*- C++ -*----------------------------------*\
| =========                 |                                                 |
| \\      /  F ield         | OpenFOAM: The Open Source CFD Toolbox           |
|  \\    /   O peration     | Version:  v1912                                 |
|   \\  /    A nd           | Website:  www.openfoam.com                      |
|    \\/     M anipulation  |                                                 |
\*---------------------------------------------------------------------------*/
FoamFile
{
    version     2.0;
    format      ascii;
    class       volScalarField;
    location    "0.002";
    object      rho;
}
// * * * * * * * * * * * * * * * * * * * * * * * * * * * * * * * * * * * * * //

dimensions      [1 -3 0 0 0 0 0];


internalField   nonuniform List<scalar> 
16000
(
1.347215838901237
1.347225943608443
1.346115197095701
1.345951759560932
1.345841648849778
1.345916646726849
1.346042468867486
1.34622173382521
1.346443885300751
1.346695415942803
1.34699635421312
1.347349457223021
1.347775300902273
1.348277607357602
1.34886265276619
1.349521812888751
1.350238874894444
1.350990397858056
1.351748382356673
1.352487631484817
1.35318711176974
1.353835418224403
1.354429851221458
1.354975714266763
1.355483079805615
1.355963957806303
1.356429735865737
1.356890240238416
1.357352842107963
1.357823088006492
1.358304602644457
1.358800158758817
1.359311890678991
1.359842486750088
1.360395586879635
1.36097662652647
1.361592382341596
1.362250106954717
1.362955203279666
1.363709321780725
1.364509411418746
1.365349963315776
1.366227672823748
1.367147787285641
1.368128398391559
1.369201713802246
1.370412390593168
1.371817176973904
1.373490066713631
1.375531873545406
1.378061426740788
1.381136068244728
1.384550540506835
1.387572585481081
1.388901159776073
1.387214555718998
1.382119627388716
1.374692777565372
1.366930910329824
1.360550663487889
1.356242061712476
1.353790388863878
1.352595774639781
1.352091937487811
1.351906620623651
1.35184684449406
1.351829862839002
1.351825598539546
1.351824649023509
1.351824460980866
1.35182442776775
1.35182442252173
1.35182442177888
1.35182442168435
1.351824421673517
1.351824421672395
1.351824421672291
1.351824421672281
1.351824421672281
1.351824421672281
1.34854508281912
1.348262760184453
1.346827209982138
1.346635811242189
1.346425178960417
1.34649421028738
1.346584177167094
1.346756518896519
1.346967919814746
1.347219341428258
1.34752543628356
1.347891938780024
1.34833910485577
1.348870203721071
1.349490440804388
1.350189469915488
1.350948629984605
1.351742321935485
1.352540166510872
1.353315540756664
1.354046334815936
1.354721065923125
1.35533739005699
1.355901396107854
1.35642396646027
1.356917802733218
1.357394760588654
1.357864908043713
1.358335679611361
1.358812537429298
1.359298943859116
1.359797422693796
1.360309866635039
1.360838722902963
1.361387556954122
1.361961917101276
1.362569058448664
1.36321691344311
1.363911701234304
1.364655453660929
1.36544477793125
1.366272657733963
1.367133500081724
1.368029774748904
1.368977109813658
1.37000527171925
1.371156225282513
1.372483212555704
1.37405745858643
1.375983139109674
1.378401633180806
1.381426691205194
1.384942000156839
1.388292190658915
1.390143208833771
1.38897797563609
1.38414976767581
1.376598657191753
1.368402284915648
1.361496596454656
1.35675574764803
1.354028720509227
1.352690976087309
1.352124820769399
1.35191645463448
1.351849390598004
1.351830431917324
1.351825707660094
1.351824666731957
1.351824463341907
1.351824428007131
1.351824422534905
1.3518244217777
1.351824421683862
1.351824421673427
1.351824421672384
1.351824421672289
1.351824421672281
1.351824421672281
1.35182442167228
1.350042040007636
1.349429983222913
1.347660967591177
1.347453993853342
1.347141257250186
1.347210512747642
1.347260020799493
1.34742867422107
1.347628918754018
1.347882668175798
1.348196287927163
1.348579382735245
1.34905041726576
1.349611899619704
1.3502668169219
1.351002688284804
1.351798313122812
1.352626193742695
1.353454445139275
1.354255860809369
1.355008358872735
1.355701113168805
1.356332641183673
1.356909918519821
1.357444479064231
1.357949401296036
1.358436652542505
1.358916219948151
1.359395339712325
1.359879203150155
1.360370973148623
1.360872856349721
1.361386445588847
1.361913957275669
1.362458864611491
1.363026866774912
1.363625632564431
1.364263762027593
1.364948155500837
1.36568127799121
1.366459493946687
1.367274798442712
1.368119922121094
1.368995528117664
1.369915574087958
1.370908320997242
1.372013425134998
1.37328012062115
1.37477376683754
1.376594619108706
1.378893332691877
1.381822989793589
1.385344244684772
1.388885967390193
1.391122005604521
1.390393908211434
1.385823582628623
1.378198403618366
1.369647096931928
1.36229696288954
1.357187584121991
1.354226568710224
1.352768564477039
1.352150960365661
1.351924030011877
1.351851272328375
1.351830829904408
1.351825778156398
1.351824676809562
1.35182446438935
1.351824428050279
1.351824422523014
1.351824421773832
1.351824421683147
1.351824421673325
1.351824421672372
1.351824421672288
1.351824421672281
1.351824421672281
1.35182442167228
1.351611824726719
1.350668186340809
1.348579311410347
1.348388182407819
1.347974353479545
1.348057282240166
1.348068322517877
1.348240571268289
1.348434415899574
1.348696975598349
1.349024359822178
1.349430087518445
1.349929429301416
1.350523672972193
1.351212580600242
1.351981276908497
1.352806263791286
1.353658674625345
1.35450630119588
1.355322366920462
1.356086032355452
1.356787834920491
1.357427585869518
1.35801311865321
1.35855634883465
1.359070316725686
1.359566693687863
1.360055018767632
1.360542073515707
1.361032581668929
1.361529310497444
1.362034081074578
1.362548196497201
1.363073658175673
1.363613916152974
1.364174839064131
1.364764514264741
1.365392089636273
1.366065008376103
1.366786000708234
1.367551244878656
1.36835203138258
1.369180062212024
1.370034940674383
1.370929749946821
1.371891873533842
1.3729593059574
1.374177635439306
1.375605660433038
1.377336236574019
1.379520800364316
1.38233793393382
1.385809798955539
1.389443339981589
1.391936812537446
1.391528668150107
1.387149826182562
1.379455893229782
1.370613856482243
1.362907060280977
1.357508161663556
1.354368331569473
1.352821604934636
1.352167752117473
1.351928493065433
1.351852248567769
1.351830997065657
1.351825797116267
1.351824676810225
1.351824463712129
1.351824427835947
1.351824422477724
1.351824421766243
1.351824421682082
1.351824421673196
1.351824421672359
1.351824421672287
1.351824421672282
1.351824421672282
1.35182442167228
1.353127544204452
1.351896675937772
1.349534423105972
1.349401127311428
1.348899426007963
1.349014546935168
1.348997187944759
1.34918495003416
1.349382838760963
1.349664801072117
1.350015810828278
1.350452522652465
1.350985892567526
1.351615414508211
1.352336969302462
1.353133288240586
1.353979178352805
1.354845254873233
1.355700345071753
1.356519241616274
1.357283490978379
1.357985600611104
1.358626931762104
1.359216010832878
1.359764757450304
1.360285710776037
1.360789818118598
1.361285821968318
1.361779810182292
1.362275882510442
1.362776339148843
1.363282603501327
1.363795735991621
1.364317609399692
1.364851756318275
1.365404289907558
1.365983703495645
1.366599547726323
1.3672595494742
1.367966434728167
1.368716093205175
1.36949932850688
1.370307389414248
1.37113958635512
1.372008844804056
1.372942183452277
1.373976384176124
1.37515392188944
1.376527466496831
1.378181699411766
1.380264824424448
1.382971220430043
1.386368424584983
1.39002420018505
1.392658298070492
1.392433603819939
1.388142068506746
1.380351178012046
1.371268195099401
1.363295765461994
1.357697058639422
1.354443374365305
1.352845578278689
1.352173584438877
1.351929361027981
1.351852198662452
1.351830908629658
1.351825760463316
1.351824666246914
1.351824461285435
1.351824427369882
1.351824422401156
1.351824421755339
1.351824421680724
1.351824421673048
1.351824421672343
1.351824421672286
1.351824421672282
1.351824421672281
1.351824421672281
1.354492000474346
1.353054766396237
1.350493364679798
1.350460446214219
1.349895203901332
1.350062674669878
1.350034327495296
1.350252830376674
1.350470196190727
1.350785260162656
1.351172367640312
1.35164968096733
1.352223175008252
1.352889958329475
1.353641883069646
1.354459639149835
1.355317266296008
1.356185989526258
1.357037026402699
1.357847867334683
1.358603326506957
1.359298282628764
1.359935659506605
1.3605243735806
1.361075902496714
1.361601824506914
1.362111974394856
1.362614008267265
1.363113136254721
1.363612736681753
1.364114619598258
1.364619855011637
1.365129362434767
1.36564503492406
1.366170642078385
1.366712646488098
1.367279925507841
1.36788224326146
1.368527272566477
1.369217384511402
1.369948015340563
1.37070967912012
1.371493751031237
1.372300030947861
1.373141976493047
1.374046657499122
1.375049901738032
1.376191504458476
1.377518895262955
1.37910955800535
1.381107712978802
1.383717109637306
1.387034341649819
1.390663584343792
1.393330549524032
1.393142650912568
1.388810518215544
1.380871994462841
1.371588152297579
1.363443690397985
1.357742215270149
1.354445969475853
1.352838362845127
1.352167840144833
1.351926519047168
1.351851116358201
1.351830570554686
1.35182567136636
1.351824646122818
1.351824457351281
1.351824426699597
1.351824422301117
1.351824421742208
1.351824421679203
1.351824421672893
1.351824421672329
1.351824421672284
1.351824421672281
1.351824421672281
1.351824421672281
1.355608540110827
1.354085855762848
1.351419003788483
1.3515341477383
1.350939442110377
1.351183203225481
1.351168683920652
1.351436280679412
1.351692814432597
1.352056572546726
1.352493325587034
1.353020626246065
1.353639427285463
1.354344078473991
1.355122852480761
1.355955145593545
1.356815387616056
1.35767667837317
1.358513783654052
1.35930781855361
1.3600473401355
1.360729705466143
1.361359154892978
1.361944584050632
1.36249657525898
1.36302535042978
1.363539338914698
1.364044922142976
1.364546334051045
1.36504621237421
1.365545917295921
1.366046274407569
1.366548222627455
1.367053878933717
1.367567438398529
1.368095824488765
1.368648247159806
1.369234443319562
1.369861643788786
1.370531495266154
1.371238840275119
1.371974156874966
1.372729573956505
1.37350616276804
1.374318534393953
1.375194096061625
1.376167792283056
1.377277005016435
1.378564924647973
1.380103710820819
1.382034760772365
1.384566844480107
1.38780947573548
1.391375141030347
1.393972870297437
1.393670264115104
1.389157644522596
1.381010577562201
1.371563416101843
1.363343812063104
1.357640838421602
1.35437585888689
1.352800456804781
1.352151004927227
1.351920223823685
1.351849105936328
1.351830017152821
1.35182553921523
1.351824618615302
1.351824452340954
1.351824425898441
1.35182442218835
1.351824421728202
1.351824421677666
1.351824421672742
1.351824421672317
1.351824421672284
1.351824421672282
1.351824421672281
1.351824421672281
1.356461118636679
1.354988914577157
1.352316364084924
1.352620882046931
1.352035803662855
1.352377317867563
1.352404509589156
1.352738599117394
1.35305432191274
1.353480953794107
1.353978948776228
1.354563085447679
1.355229798824693
1.355970673837694
1.356771340833723
1.357610938389168
1.3584654925196
1.359311148994616
1.360127014866451
1.36089837025517
1.361617526434519
1.362284098538961
1.362903187655855
1.363483208545232
1.364033455208971
1.364562518035598
1.365077264117255
1.365582741836353
1.366082216022229
1.366577655910999
1.367070087231483
1.367560269047732
1.3680493770944
1.368539995697809
1.369036942123325
1.36954768468672
1.37008165895056
1.370648279078486
1.371253929523718
1.371899212031095
1.372578340102226
1.37328212155278
1.374004116876861
1.374747397727716
1.37552820837674
1.376374404537994
1.377319941849237
1.378399893253227
1.379654167347818
1.381151829802014
1.383033542212701
1.385509788495993
1.388686893005789
1.392155642782071
1.39458285720704
1.394011657131794
1.389176664342901
1.380762342450876
1.371194932166206
1.363001594307278
1.357399536355227
1.354238215869485
1.35273496871045
1.352124563011027
1.35191106542637
1.351846365411022
1.351829304910569
1.351825377856076
1.351824586637038
1.351824446783469
1.351824425049402
1.351824422074085
1.35182442171463
1.351824421676241
1.35182442167261
1.351824421672306
1.351824421672282
1.351824421672282
1.351824421672281
1.351824421672283
1.357096806453059
1.355803045798288
1.353216114853923
1.353737748643037
1.35320286925869
1.353657915135811
1.353754590828992
1.354169267623437
1.354561681302825
1.355061909305714
1.355628906021781
1.356273001682555
1.356987024968103
1.35776024706574
1.358576904517661
1.35941702929569
1.360259308444493
1.361083786490307
1.36187423434391
1.362620142161556
1.363317157397446
1.363966646679743
1.364574004563809
1.365146736252896
1.36569258048538
1.366218385477389
1.366729460316327
1.367229605749998
1.367721241365054
1.368205837268932
1.368684282374702
1.369157514462549
1.369627210127592
1.370096677163698
1.370571522534272
1.371059775195989
1.371570909223738
1.37211367159295
1.372693224002441
1.37330892014521
1.373954476025166
1.374621526037202
1.375305750256697
1.376012813201031
1.376760850942822
1.377578071006176
1.378497185398662
1.379550953623778
1.380776917028348
1.382243421501809
1.384092787191828
1.386533924131571
1.389653066778916
1.392988076947744
1.395139004235232
1.394144437030525
1.388852621155928
1.380126757112761
1.370495379066382
1.362434894263145
1.357033840405298
1.354043189768812
1.352647208071064
1.352090814664994
1.351899884288231
1.351843155754787
1.351828503433556
1.351825203159704
1.351824553321882
1.351824441211202
1.351824424230412
1.351824421968105
1.351824421702535
1.351824421675021
1.351824421672502
1.351824421672297
1.351824421672282
1.351824421672281
1.351824421672281
1.351824421672282
1.357577037936298
1.356572788488328
1.354156488655609
1.354912003565091
1.354464899448495
1.35504483308953
1.355236155637854
1.355741388039678
1.35622360346087
1.356803736236845
1.357442876326275
1.358146164478034
1.358903984253715
1.35970415367643
1.360530846557543
1.361366037103211
1.362191818965285
1.362992511994222
1.363756376675463
1.36447667372481
1.365151654455996
1.365783760262302
1.366378123410787
1.366941028358138
1.367478567083853
1.36799592197772
1.368497014935878
1.368984625432301
1.369460567832441
1.369926077448285
1.370382183345223
1.37083030211614
1.371272897018376
1.371714228034725
1.372160783786058
1.372621062232554
1.373104295683633
1.373618193572512
1.37416640084048
1.374746998013891
1.375353533996318
1.375979075684301
1.376622048877308
1.377291081032083
1.37800618293563
1.378795607541905
1.37969046667335
1.380721182055379
1.38192391281282
1.383368787362419
1.38520199043903
1.387626409058069
1.390689257644127
1.393843489001894
1.395602901292318
1.394031281394997
1.388165268393778
1.379109387041587
1.369489574569345
1.361673011713727
1.356566845330115
1.353804760850724
1.352544032915066
1.352052562031453
1.35188764685587
1.351839761176003
1.351827684096119
1.351825030549369
1.351824521526769
1.351824436078351
1.351824423502731
1.351824421877374
1.351824421692567
1.351824421674055
1.351824421672418
1.351824421672291
1.351824421672282
1.351824421672281
1.351824421672281
1.351824421672281
1.35800832531749
1.357373893377124
1.355189179839664
1.35618329932601
1.355856106445289
1.356564884040109
1.356871127371424
1.357471480979755
1.358050603641745
1.358712134816787
1.359422018303309
1.360180478079489
1.360976642552005
1.361797923536263
1.36262958422938
1.363456274651704
1.364263794354235
1.365040594096481
1.365778818401092
1.366474704500734
1.367128231674346
1.367742229413629
1.368321142612449
1.368869911638249
1.369393091674159
1.369894460704706
1.370376878797227
1.370842455102092
1.371292742532728
1.371729087857917
1.372152999119141
1.372566697744827
1.372973699084396
1.373379365296569
1.37379103590677
1.374217452917037
1.374667243082466
1.375146726429668
1.375657880129624
1.376197705307191
1.376760105472806
1.377340232247454
1.377939732804057
1.378570279367669
1.379253452640174
1.380017070935528
1.380890251785447
1.381901146388279
1.383085749034149
1.384518615395489
1.38635123646565
1.388773545384433
1.391771548743061
1.394681578358684
1.39592146299121
1.393624285931914
1.387094280437573
1.377725490071164
1.368215024719566
1.360755199978403
1.356027238512799
1.353539258238453
1.352433022769358
1.352012739331323
1.351875312113565
1.351836448553565
1.35182690987805
1.351824872826011
1.351824493441171
1.351824431698921
1.351824422903814
1.351824421805412
1.351824421684961
1.351824421673347
1.35182442167236
1.351824421672287
1.351824421672283
1.351824421672281
1.351824421672281
1.351824421672281
1.358508922527051
1.35828658814126
1.356370048893912
1.357594733946088
1.357412680842675
1.358246358844965
1.358681595661464
1.359376866512478
1.360054027996611
1.360794513521001
1.361570459684909
1.362378221913784
1.363206721191805
1.364043931163996
1.364876985344898
1.36569350229124
1.366482814663879
1.367236917735668
1.367950951926856
1.36862318678356
1.369254498293256
1.369847566928986
1.37040594966701
1.370933349701314
1.371433100158923
1.371908001981448
1.372360309274439
1.372791911490599
1.37320452358715
1.373600004758127
1.373980706004464
1.374349956865981
1.374712511765528
1.37507485099934
1.375444975721086
1.375831514025737
1.376242079900901
1.376681336862537
1.377149642808828
1.377643341791662
1.378157351081004
1.378689506530268
1.379244910826984
1.379838040263955
1.380491486163808
1.381232042718462
1.38208648006507
1.383080965303061
1.384252931841557
1.38568405225212
1.387530995814062
1.389959913166477
1.392869474508052
1.395450120955184
1.396029348901894
1.392870856010651
1.385626143268208
1.376004202616699
1.366722126780181
1.359728537373442
1.355446893149056
1.35326370079907
1.352321618056486
1.351974058892291
1.351863714034384
1.351833432996674
1.351826228346698
1.351824738596629
1.351824470360355
1.351824428227129
1.351824422446513
1.351824421752559
1.351824421679598
1.351824421672868
1.351824421672323
1.351824421672283
1.351824421672281
1.351824421672282
1.351824421672281
1.351824421672281
1.359172914346056
1.359374450985964
1.357743172405407
1.359183269906003
1.359164937026477
1.360115146313352
1.360687315495557
1.361474763822217
1.362246732995196
1.363061504354508
1.363897423578948
1.364748378264337
1.365603857423611
1.366453064705037
1.36728531742987
1.36809104576094
1.368862558125949
1.369594547482519
1.370284189987243
1.370930922600768
1.37153590781528
1.372101416420438
1.37263019921552
1.373125069800307
1.373588640236164
1.374023294956248
1.374431232853119
1.374814637726969
1.375175849596039
1.375517648377611
1.375843558346347
1.37615823104605
1.37646770326801
1.376779409822591
1.37710165642095
1.377442502456712
1.377808168985767
1.378201553356363
1.378621674777043
1.379064835816474
1.379527663377579
1.380011106903868
1.380523646318798
1.381082010680655
1.38170905969465
1.382429950850533
1.383268885089559
1.384250688519849
1.385416325542703
1.386856988684757
1.388731728173529
1.391166853718174
1.393943837255876
1.396084625313227
1.395852737336507
1.391721350463492
1.383761675392897
1.373991713925602
1.365072863684665
1.358644721072193
1.354858022276758
1.352994073470056
1.352216320932764
1.35193871901859
1.35185346970816
1.351830859623986
1.35182566674807
1.351824631917604
1.351824452684717
1.351824425670749
1.351824422123083
1.351824421716754
1.351824421676123
1.351824421672572
1.351824421672301
1.351824421672281
1.351824421672281
1.351824421672281
1.351824421672281
1.351824421672282
1.360076678681444
1.3606926705077
1.359348215311213
1.360985222349107
1.361142446369618
1.36219773370444
1.362909014749317
1.363785069855144
1.364646251334606
1.365530010008765
1.366419945567921
1.367308722132491
1.368186794604941
1.369044843450394
1.369874246241864
1.370667753529328
1.371419900763578
1.372127214129317
1.372788104817946
1.373402596569615
1.373971881763369
1.374497908887732
1.374982999235002
1.375429642028933
1.375840373600386
1.376217806545954
1.376564677557668
1.376883987077025
1.377179140184234
1.377454182339639
1.377714029563354
1.377964705284888
1.378213372460589
1.378468059296382
1.378736880928625
1.379026848465045
1.379342522563025
1.379685139562603
1.380052882477683
1.380442733083149
1.380853629952122
1.381289788168358
1.38176264743568
1.382290391352007
1.382895327143221
1.383600432710799
1.384427355627713
1.385400725871269
1.386567588318235
1.388030105556763
1.389942862640011
1.392370176149639
1.394944473441241
1.396509307013887
1.39531553034518
1.39013852118805
1.381523194503511
1.371752621648342
1.363337770166005
1.357556077904192
1.35429027687095
1.352743813594489
1.352122093980146
1.351908213761441
1.351844941788523
1.351828795038835
1.351825232995035
1.35182455269186
1.351824440090448
1.351824423925808
1.35182442191222
1.351824421694503
1.35182442167407
1.351824421672406
1.351824421672287
1.351824421672281
1.35182442167228
1.351824421672281
1.351824421672281
1.351824421672282
1.36129349661009
1.362292321464761
1.361220556296497
1.363028903224606
1.363372892532384
1.364521248209709
1.365370154832361
1.366332573623661
1.367277394946824
1.368225467386086
1.369164246545342
1.37008600427324
1.370982208290649
1.371844905995614
1.372667142084122
1.373443384216068
1.374169708130763
1.374843841844499
1.375464994741244
1.376033625162593
1.376551121205577
1.377019553091934
1.377441449134986
1.377819698177813
1.378157480643219
1.378458292570955
1.378725967048367
1.378964770982781
1.379179504798831
1.37937567166759
1.379559602381638
1.379738515846889
1.379920321016467
1.380113106683991
1.380324236751721
1.380559266033318
1.380821018587395
1.381109407961524
1.381422440462493
1.381758475283488
1.382119139901134
1.382511725001839
1.38294991213519
1.383452402558017
1.384040162397165
1.384733609335004
1.385552221484545
1.386522190432586
1.387699388600708
1.38919638611005
1.391150979762344
1.393537283931499
1.395808656184633
1.396640395181052
1.394348463448353
1.388108073005156
1.378960087114782
1.369368482792842
1.361591244599552
1.356511260949822
1.353768219845539
1.352522748690259
1.352042039899009
1.351883282460731
1.351838240672367
1.351827236925013
1.351824919071602
1.351824497824214
1.351824431763713
1.351824422827942
1.351824421786403
1.35182442168197
1.351824421672984
1.351824421672324
1.351824421672282
1.35182442167228
1.351824421672281
1.351824421672281
1.351824421672281
1.351824421672282
1.362838592689287
1.364195699444493
1.363381606727678
1.365345101821302
1.365885914370677
1.367121402409905
1.368104355753997
1.369152556372668
1.370176093994676
1.371183887492479
1.372165857398665
1.373114255753887
1.374021362780408
1.374880294563954
1.375685342549068
1.376432243767311
1.377118249872226
1.377742108229067
1.378303896959919
1.378804850978186
1.379247134878615
1.379633681759741
1.3799680318556
1.380254252026019
1.380496853075398
1.380700773398836
1.380871360174128
1.38101441961177
1.381136267854558
1.381243817532241
1.381344578503467
1.381446539139708
1.381557777388738
1.381685814617322
1.381836742729859
1.38201442093087
1.382220096471528
1.382452894551641
1.382711348878209
1.382995733054817
1.38331042068374
1.383665251289478
1.384075229251537
1.384558629147391
1.385134426056355
1.385820359564393
1.38663461918815
1.387607334076455
1.388805549225015
1.39034823358567
1.39233747235298
1.394624477398199
1.39646157146887
1.396392685386886
1.392900282983476
1.38564769646462
1.376149949529895
1.36693255843559
1.359905182224558
1.355550996710518
1.353309431389059
1.352336566420995
1.351977375465783
1.351863972259543
1.35183326902865
1.351826131512857
1.351824706610215
1.351824462508397
1.351824426686646
1.351824422196936
1.351824421718663
1.351824421675697
1.351824421672485
1.351824421672291
1.35182442167228
1.351824421672281
1.351824421672281
1.35182442167228
1.351824421672281
1.351824421672281
1.364762694789452
1.36644168217022
1.365889621670733
1.367979512264434
1.36872746051879
1.370046196977999
1.371157559853525
1.372290702471423
1.37338733999201
1.37444820441825
1.375464352337524
1.376428020741952
1.377332059207756
1.378170465343016
1.378938657610741
1.379633654710898
1.380254084469796
1.380800131783655
1.381273374839862
1.381676623119136
1.382013706806461
1.382289312387087
1.382508801887043
1.382678090043437
1.382803517392052
1.382891787432409
1.382949913758294
1.382985231104638
1.383005397387711
1.383018393354349
1.383032402992973
1.383055548058823
1.383095388834815
1.383158273110306
1.383248652755149
1.383368687996046
1.383518434330319
1.383696868110812
1.383903664553513
1.384141276016923
1.384416535619008
1.384741049243835
1.385130163754693
1.385600903592566
1.386169826531219
1.386852238288239
1.387666528279319
1.388649559151297
1.389880484598016
1.391475681029163
1.393475828096006
1.395575606111179
1.396820603704285
1.395690755623013
1.390951010363807
1.382813824772835
1.373195497942831
1.36454194058076
1.358342512669219
1.354704903688087
1.352923682216165
1.352186929018474
1.35192768436893
1.351849796831832
1.351829788869444
1.351825395667671
1.351824572619909
1.351824441513416
1.351824423860365
1.351824421870954
1.351824421686586
1.351824421673022
1.351824421672299
1.351824421672279
1.35182442167228
1.351824421672281
1.35182442167228
1.351824421672281
1.351824421672281
1.351824421672282
1.367096244465521
1.369070555724744
1.368780748929368
1.370980791155546
1.371945861457975
1.373351143697919
1.374585356773899
1.375801173827194
1.37696212777213
1.378063534142663
1.379096732043972
1.380054080541179
1.380929175673376
1.381717259926551
1.382415425566159
1.38302270739759
1.383540014140786
1.383969999675171
1.384316832095286
1.384585962445071
1.384783848235986
1.384917718866711
1.384995333949123
1.385024806594297
1.385014444014142
1.384972663194267
1.384907929321506
1.384828745960495
1.384743618734387
1.384660980088967
1.38458897870357
1.384535130998072
1.384505816502271
1.384505754233406
1.384537628004029
1.384602145166871
1.384698711401998
1.384826774874676
1.384987555808163
1.385185625963381
1.385429700355877
1.385732247332101
1.386108060707179
1.386572302535059
1.387138975453615
1.387821652850727
1.388641036392152
1.389643421045233
1.390918242559197
1.392564108645955
1.39452924176953
1.396323107714349
1.396803602993613
1.394482811485203
1.388523218318853
1.379702296318519
1.370215852733071
1.362287967405233
1.356951559224256
1.353989834649854
1.352613200173345
1.352072109206114
1.35189135285045
1.351839938560217
1.351827493674786
1.351824937468705
1.351824494330018
1.351824430101875
1.351824422449023
1.351824421724159
1.351824421673942
1.351824421672146
1.351824421672253
1.351824421672277
1.351824421672281
1.351824421672281
1.351824421672281
1.351824421672282
1.351824421672282
1.351824421672282
1.369857266411969
1.372127740910521
1.372113116727731
1.374418638236297
1.375611189219955
1.377108940660123
1.378456877209893
1.379745422841813
1.380951690882174
1.382067836676511
1.383085524002529
1.383998047992892
1.384800794014304
1.385491528072486
1.38607046531049
1.386540193792287
1.386905432608653
1.387172728031197
1.387350065918034
1.387446502340077
1.38747178218461
1.387436029240401
1.387349467816302
1.387222236953624
1.387064250528504
1.386885139438043
1.386694216893336
1.386500470831702
1.386312506378553
1.386138421101092
1.385985550995936
1.385860118468422
1.385766825693374
1.385708559169457
1.385686376422118
1.385699976696573
1.385748702946553
1.385832954622241
1.38595562028466
1.386123034574452
1.386345046629599
1.386634116277467
1.387003782678092
1.387466996369149
1.388035402980834
1.388722072494585
1.389552587611197
1.390584396515107
1.391911191050072
1.393592226329681
1.395450292607614
1.396793681499233
1.396341757832043
1.392755202195147
1.38568767186723
1.376440604542428
1.367332542126494
1.360245788420546
1.355761865401234
1.353409742817326
1.352373781183984
1.351987934944025
1.351866069360968
1.351833446073787
1.351826070105267
1.351824671741509
1.35182445232724
1.351824424529863
1.351824421838343
1.351824421670535
1.351824421670435
1.351824421672018
1.351824421672257
1.35182442167228
1.35182442167228
1.35182442167228
1.351824421672281
1.351824421672282
1.351824421672282
1.351824421672282
1.373141598139679
1.375701236827531
1.375992381782049
1.378389623940094
1.379814503741853
1.381403484981142
1.382843269012533
1.38417701442492
1.385389533399456
1.386472269702614
1.387418627256277
1.388224871005973
1.388890472810178
1.389418130367864
1.389813519559468
1.390084883079523
1.390242482162527
1.390298033433762
1.390264133056257
1.390153769218555
1.389979894166768
1.389755122595068
1.38949150824011
1.389200435156745
1.3888925665009
1.388577860888291
1.388265591767616
1.387964357401559
1.387682017493347
1.387425548913999
1.387200801067867
1.387012214558382
1.386862589195351
1.386753063450011
1.386683440019342
1.386652951764567
1.386661390427027
1.386710362182679
1.386804268905816
1.386950652359577
1.387159725847572
1.387443229414384
1.387812998003046
1.388279693984146
1.388853181756244
1.389547777745962
1.390396539475116
1.391467678146113
1.392847913868974
1.394530571441089
1.396183532847627
1.396918801536304
1.395395653223708
1.39054443141768
1.382561501291228
1.373173876837847
1.36465490336584
1.35846703148292
1.354783386803894
1.352957576666064
1.352196705125652
1.35192891769917
1.351849312041871
1.351829398600326
1.351825241860742
1.351824529205053
1.351824431962954
1.351824422172434
1.351824421628723
1.35182442165839
1.351824421670396
1.351824421672109
1.351824421672271
1.351824421672282
1.351824421672281
1.351824421672281
1.351824421672282
1.351824421672281
1.351824421672282
1.35182442167228
1.377021958827027
1.379896741899419
1.380534041414505
1.383008635294695
1.384652473013939
1.38631348581849
1.387798759148566
1.389120658524219
1.390269262768488
1.391238992549208
1.392028487721487
1.392640830452975
1.393083345672311
1.393367009853586
1.393505635615978
1.393514987208059
1.39341190272451
1.393213544008741
1.392936766400936
1.392597676796141
1.392211323998951
1.391791551813782
1.391350945687205
1.390900880231504
1.390451601178007
1.390012333035813
1.389591352905186
1.389196015710435
1.3888326922995
1.388506632328811