/*--------------------------------*- C++ -*----------------------------------*\
| =========                 |                                                 |
| \\      /  F ield         | OpenFOAM: The Open Source CFD Toolbox           |
|  \\    /   O peration     | Version:  v1912                                 |
|   \\  /    A nd           | Website:  www.openfoam.com                      |
|    \\/     M anipulation  |                                                 |
\*---------------------------------------------------------------------------*/
FoamFile
{
    version     2.0;
    format      ascii;
    class       volScalarField;
    location    "0.002";
    object      T;
}
// * * * * * * * * * * * * * * * * * * * * * * * * * * * * * * * * * * * * * //

dimensions      [0 0 0 1 0 0 0];


internalField   nonuniform List<scalar> 
16000
(
255.8463931811804
255.9365926666395
256.1628608153262
256.2730449812533
256.3322440325014
256.3844690432017
256.4163091433812
256.4458281297433
256.4680355528961
256.4873683790409
256.5002791140536
256.5057025932689
256.5002759661045
256.4831035621463
256.4531992343855
256.4122191673806
256.3633501063664
256.3110805443796
256.2607832064437
256.21725569047
256.1845056376297
256.1647004568615
256.1583655998838
256.164511922251
256.1812619468372
256.2063840717518
256.237776965065
256.2736607180155
256.3127365700042
256.3540928058659
256.3972112249612
256.4417952462278
256.4877202652365
256.5348404634957
256.5829102483144
256.6314591264357
256.679884983326
256.7276584785602
256.7747866387722
256.8222369848557
256.8721698191091
256.927636433724
256.9918318167217
257.0671685246077
257.1548580542534
257.2553142144957
257.3693468934968
257.4995186616891
257.6512161388991
257.832401066905
258.0498018083389
258.2977767420962
258.5407678516235
258.7017131855558
258.6818910027292
258.4183247034113
257.9388091094696
257.3607408186209
256.8246939198177
256.42104687854
256.1669495792312
256.0307818928723
255.9678837154219
255.9426159203217
255.93372995446
255.9309808750566
255.9302298442434
255.9300480761574
255.9300089932628
255.9300015072424
255.9300002267525
255.9300000306758
255.9300000037386
255.9300000004111
255.9300000000408
255.9300000000035
255.9300000000002
255.9299999999999
255.9299999999999
255.9300000000002
255.7078882514598
255.8620594661749
256.1488675075757
256.2731315832328
256.3515321041998
256.4125054878278
256.4534652312207
256.4900240180056
256.5184045499298
256.5428128925385
256.5595353182376
256.5674376238808
256.563010258471
256.5455131006747
256.5141301228072
256.4708433815453
256.4192857817926
256.3643352632588
256.3117859754281
256.2666746453497
256.2331756773775
256.2134359998074
256.2078790110759
256.2153318643064
256.2337313482731
256.2606792423456
256.2939518703239
256.3316856646273
256.3725342843093
256.4155627159689
256.4602479885424
256.5063010709806
256.5536093873777
256.6020340046647
256.651312560767
256.7009159874309
256.7501231830311
256.7982374871632
256.8450777359988
256.8914796443377
256.9395966011728
256.9926351551582
257.0540418747602
257.1264488029492
257.211073026089
257.3080553861024
257.4177040360003
257.542086847106
257.6865040369374
257.8599709212373
258.0723608511573
258.3237196487925
258.5846806787054
258.779524914281
258.8001640372506
258.5661677986611
258.0911135833069
257.4907607509149
256.917294781216
256.4766330015046
256.1953758229715
256.0432722291203
255.9726267141714
255.9441777595624
255.9341763319737
255.9310915109138
255.9302535402075
255.9300524297665
255.9300096686844
255.930001592754
255.9300002347902
255.930000031022
255.93000000368
255.9300000003925
255.9300000000377
255.9300000000032
255.9300000000002
255.9299999999999
255.9299999999999
255.9300000000003
255.5495229529324
255.7757229194397
256.1240866149696
256.2614967057322
256.3589847547517
256.4286868743905
256.4796550430493
256.523471242503
256.5584806198303
256.5880802408604
256.6086681197057
256.6189818078459
256.6156008538267
256.5980082904092
256.5657646048977
256.5212509953409
256.4685546812715
256.4128890939493
256.36029878891
256.3158982733027
256.2838176612021
256.2660446213565
256.2628022726112
256.2727145804631
256.2935589271139
256.3228294379314
256.358244357608
256.3979186962916
256.4405066353888
256.4850892430668
256.5311653681791
256.5784748986759
256.6269312134474
256.6764134950914
256.72665090201
256.7770667518842
256.8268403103835
256.8751342142117
256.9216178554324
256.9670282454555
257.0135308138343
257.0644748688515
257.1235318439807
257.1935235065729
257.2756844895777
257.3699307429734
257.4761125401999
257.5957266330562
257.7336142235766
257.8990699526464
258.1039713416729
258.3529442334107
258.6227891905932
258.8411208694585
258.8942208902907
258.6870572651443
258.2186328707014
257.6011382612493
256.9963457112931
256.5240420869509
256.2194540415148
256.0537206489738
255.9765243737031
255.9454314218836
255.934524173347
255.9311744609836
255.9302704198529
255.930055312804
255.9300100669779
255.9300016328813
255.9300002364227
255.9300000306039
255.9300000035472
255.9300000003686
255.9300000000344
255.9300000000028
255.9300000000003
255.9299999999999
255.93
255.9300000000004
255.3923941630466
255.6914381307084
256.0984667464825
256.2439435648218
256.3602193922978
256.4370331364045
256.4977260102088
256.5482023662971
256.5893652647405
256.6235062833651
256.647328997836
256.6594703889664
256.6568576331637
256.6392776319364
256.6068528887736
256.5624062707592
256.5104236830014
256.4563456601783
256.4062358001872
256.3650878414694
256.3367541846512
256.3229254358208
256.3235402033083
256.3370219966994
256.3610371916465
256.393048562077
256.4307921951994
256.4724302445964
256.516667514386
256.5626401854791
256.6098926271051
256.658211517618
256.7075439486549
256.7577931165441
256.8086809372495
256.8595919312934
256.9096238835563
256.9578379441212
257.0038051798194
257.0482180772459
257.0932793265451
257.1424644530812
257.199606798502
257.2676457369635
257.3477985350912
257.4397876824111
257.5430912688777
257.6586802811846
257.7908212687331
257.9486275758561
258.1451432849449
258.3885175659069
258.6610381730662
258.8942308455953
258.970927961157
258.7842368588463
258.3205686106019
257.6887226901833
257.0582961521553
256.5605012698912
256.2374912466672
256.0612799523212
255.9792181887581
255.9462471141398
255.9347324436312
255.9312184467408
255.9302777542403
255.9300561443679
255.9300100786553
255.9300016091903
255.9300002288613
255.9300000290358
255.9300000032908
255.9300000003336
255.9300000000302
255.9300000000025
255.9300000000002
255.9299999999999
255.9299999999999
255.9300000000003
255.2607918139799
255.6255037460533
256.0823492917919
256.2292465148543
256.3619167411545
256.4433120904508
256.5121801085393
256.5678073970388
256.6137087336736
256.6509826795404
256.6767947777058
256.6897826501031
256.6874646582696
256.6700184168382
256.638249693766
256.5954115118925
256.5462633906832
256.4963016745452
256.451343267828
256.4160377680581
256.3937392716454
256.385721673307
256.3915871566556
256.4095867468038
256.4373441236738
256.4723763805445
256.5125173814698
256.556043093437
256.6017568307001
256.6488837004592
256.6970339088064
256.7460517835457
256.7959204175589
256.8465634823258
256.897691211403
256.9486520957878
256.9984839759217
257.0461932312663
257.0913222068548
257.1345891742927
257.1782735305782
257.225955245186
257.2815469529075
257.3479979950368
257.4264406426483
257.5164210468642
257.6171458361794
257.7291823918805
257.856265854631
258.0071536821662
258.195518717536
258.432064699647
258.7033677379914
258.9442186356938
259.0350353550421
258.860013534056
258.3964108809259
257.7512036732635
257.1004783785826
256.5839421921873
256.2482531746373
256.0653523073254
255.9804680840317
255.9465434092665
255.9347776982844
255.9312177804782
255.9302743904043
255.9300547325181
255.9300096788702
255.9300015195957
255.9300002121141
255.9300000263602
255.9300000029204
255.9300000002888
255.9300000000255
255.930000000002
255.9300000000001
255.9299999999999
255.9299999999999
255.9300000000001
255.1772188200697
255.5926380627164
256.0851476442207
256.225972850741
256.3706237465323
256.4533768171477
256.5276578038005
256.5861308087573
256.6345540587948
256.6729815557528
256.6991436529528
256.7118383939117
256.7093568343815
256.6923412333431
256.6623032158099
256.6228428079768
256.5788053653626
256.5355177565133
256.498285009345
256.4711914116261
256.4569210326486
256.4562500222815
256.4684376597057
256.4916161934368
256.5234480801923
256.5615906374777
256.6040495538065
256.6492723337802
256.6962009671307
256.74417556883
256.7928866545561
256.8422401925454
256.8922505618221
256.9428502803356
256.9937269049814
257.0441925053506
257.093249186287
257.1399041902922
257.183753409461
257.2256232098078
257.2679140568688
257.3142841947363
257.3686287957367
257.4337813660765
257.510703631416
257.598772156219
257.6970233331688
257.8057738947445
257.9283682196312
258.0732309848023
258.2543704905439
258.4841668491603
258.7519651829805
258.9943654782559
259.089636300032
258.9160398893712
258.4459618432641
257.7871313381014
257.1211902539221
256.5930783608565
256.2510121854017
256.0656143921981
255.9801599082303
255.9462883784185
255.934653792538
255.9311719325203
255.9302605123571
255.9300511895378
255.9300089033598
255.9300013725726
255.9300001878044
255.9300000228367
255.9300000024709
255.9300000002381
255.9300000000205
255.9300000000016
255.9300000000001
255.9299999999999
255.9299999999999
255.9299999999999
255.1568095786714
255.6020702207188
256.1127405031257
256.2402129490454
256.3909679326557
256.4716408405104
256.5477485926425
256.6063396650516
256.6546736105353
256.6921161451566
256.7170046694882
256.728476470481
256.7256798193068
256.7097529450669
256.6828242552801
256.6486833832348
256.6120318878562
256.5777767775123
256.5504841135059
256.5334905495224
256.5287146987431
256.5364094682641
256.5555334156338
256.5841744229488
256.620117970387
256.6612372144517
256.7057687904888
256.7523739099464
256.8001615778382
256.8486030231156
256.8974764940423
256.9467464019085
256.9964472812252
257.0465026394149
257.0965631668507
257.1459051053779
257.193525559529
257.2384977614764
257.2805617322205
257.320736216176
257.3615808842884
257.4067944693626
257.4601476659397
257.5242288690042
257.5997456371816
257.6859122515816
257.781692047362
257.8873067947686
258.0058922303699
258.1456740853742
258.3208571577334
258.5446982270169
258.8076356307406
259.0461708461296
259.1362117625403
258.9530499617506
258.4689936838473
257.7957120102491
257.1196463925238
256.5874330140145
256.2455852367327
256.0620401981081
255.9783139176157
255.94550296669
255.9343717749328
255.9310852593449
255.9302375059983
255.9300458823017
255.9300078344272
255.9300011839085
255.9300001585355
255.9300000188354
255.9300000019879
255.9300000001865
255.9300000000156
255.9300000000012
255.9300000000002
255.9299999999999
255.9300000000001
255.93
255.2047456542394
255.6564636860964
256.1666652410288
256.2748173954174
256.4250936464965
256.5005379460782
256.5746330683388
256.6306606533406
256.6764180864691
256.7110504763124
256.7334910412526
256.7433597822253
256.7406372104633
256.7269181653995
256.7047606234113
256.6779295064459
256.6507420049045
256.6274514727808
256.6117258743228
256.6060441804442
256.6115503551093
256.6280100576215
256.6541631083922
256.6881380711046
256.7279190914188
256.7716517681733
256.817842054019
256.8653881983691
256.9135808144185
256.9620277944796
257.0105949043502
257.059295125079
257.1081669096385
257.1571041755237
257.2057085670118
257.2532284782931
257.298698061837
257.3413316120619
257.3811058677446
257.4193058354913
257.4586682703396
257.5028739696765
257.5554534328828
257.6186296847446
257.6927920809103
257.7770136876342
257.8702783906789
257.9728546967527
258.0878538492144
258.2234824439944
258.3940833002578
258.6130374798457
258.8701233816441
259.0996184541135
259.1746867769718
258.9707217340834
258.4650658783381
257.7766972536715
257.0959467514235
256.5673428543794
256.2323403105968
256.0548995187049
255.9750827999573
255.9442567905645
255.9339580648738
255.9309662554832
255.930207702262
255.9300393612269
255.930006583987
255.9300009732854
255.9300001273029
255.9300000147503
255.9300000015158
255.9300000001383
255.9300000000112
255.9300000000008
255.9300000000001
255.9300000000001
255.93
255.9299999999999
255.3171210645168
255.7526412535738
256.2448300278155
256.3295297975698
256.4728921926814
256.5405987683729
256.6092034039013
256.6604878609436
256.7018168998474
256.732557928065
256.7521837541764
256.7608547974452
256.7592532375554
256.749307608443
256.7337523558459
256.7160898592147
256.7000372426997
256.689019552381
256.6857355016473
256.6917891460877
256.707621464764
256.7326018301854
256.7653566577379
256.8041381204944
256.8471863723702
256.8929516735728
256.9402249025781
256.9881459071286
257.0361879433546
257.0840912527626
257.131801373053
257.1793644447569
257.2268038297799
257.2739654889697
257.3203983337692
257.3653450240391
257.407933575883
257.447601949494
257.4846484207553
257.5206733225305
257.5585745760343
257.6019300167035
257.6539103034034
257.716275012546
257.7890653040346
257.8712567829047
257.9619442821934
258.061563365162
258.1733691312366
258.305737982326
258.4731123294122
258.6882284635231
258.9383758742344
259.153433088399
259.2035997139939
258.9677647943741
258.4335788081419
257.7304241410303
257.0510916096842
256.5339439181721
256.2121664660253
256.0447313837916
255.9707321771032
255.9426589900963
255.9334506847132
255.9308262362128
255.9301740003944
255.9300322645774
255.9300052738348
255.9300007607689
255.9300000969619
255.9300000109311
255.9300000010912
255.9300000000966
255.9300000000077
255.9300000000005
255.93
255.93
255.9299999999999
255.93
255.4812166766613
255.8817439135424
256.3417348899637
256.4012049941677
256.5322440442522
256.5907599803668
256.6514089158671
256.6967201819888
256.7328481331232
256.7596775347451
256.7771307116643
256.7858577187343
256.7870307847181
256.7827203984868
256.7755652804244
256.7685870332468
256.7647465128925
256.7665556114039
256.775766456135
256.7931831161347
256.818676838247
256.8513476756129
256.8898177622211
256.9325313807552
256.9780182130415
257.0250406371523
257.0726695861944
257.120275686526
257.16750463548
257.2142166318379
257.2604228153081
257.3061836241711
257.3514891866502
257.3961272103135
257.4396051784742
257.4812011116559
257.5202082186692
257.5563712129427
257.5903740623679
257.624142652131
257.6606775585467
257.7033432132855
257.7548373539063
257.8163939621487
257.8877193479614
257.9677597484895
258.0558056413456
258.1525574770008
258.2615653692497
258.3915540435077
258.5569866553878
258.7690800919956
259.0106967585863
259.2052580692694
259.2202951181665
258.9421249111759
258.373954659038
257.6579125081925
256.9869739901382
256.4890987731579
256.1863910687132
256.0322825704391
255.9656070029022
255.9408432986207
255.9328936659355
255.9306776131507
255.930139401935
255.9300252183741
255.9300040163479
255.9300005637185
255.9300000697999
255.930000007633
255.9300000007379
255.9300000000632
255.9300000000047
255.9300000000003
255.93
255.93
255.9299999999999
255.93
255.6794238131374
256.0326271553533
256.4503489133111
256.4854402563075
256.6004057211606
256.6495755738439
256.7012534346189
256.7405606335013
256.7719818447472
256.7960015670094
256.8128745596096
256.8235921219277
256.8295620426272
256.8327734176978
256.8355262477933
256.840201403454
256.8489302947498
256.8633255073557
256.8842982086671
256.9119978823794
256.9458925881763
256.9849505255502
257.027885133265
257.0733788733491
257.1202605603372
257.1675920568866
257.2147047347179
257.2611792643999
257.3068160114046
257.3515771802821
257.395521114257
257.4387035111232
257.4810688704101
257.5223503799887
257.5620452244343
257.5995276457614
257.6343362126924
257.6665942098718
257.6974004396516
257.7289676230083
257.7642973934446
257.8064150632845
257.8574544682201
257.9181094476789
257.9878100060591
258.0655592119879
258.1509168263725
258.2449266389725
258.3515738591615
258.4800818451048
258.6447456000366
258.8541854653471
259.0847702250284
259.2517366041766
259.2211186196673
258.8912774401691
258.2859143108464
257.5609951871795
256.9063416339908
256.4352718461024
256.1566552551075
256.0184243869594
255.9600889914032
255.9389502117499
255.9323309162949
255.930532117207
255.9301065807674
255.9300187478933
255.9300028990423
255.9300003944359
255.9300000472641
255.9300000049928
255.9300000004654
255.9300000000383
255.9300000000028
255.9300000000001
255.9300000000001
255.93
255.9299999999999
255.9299999999999
255.8940357575445
256.1947876241992
256.5646188590877
256.5783335598279
256.6755224434275
256.716396969317
256.7596802173657
256.7941479914879
256.8225251528849
256.8457690367706
256.8643248706805
256.87931521633
256.8921272366241
256.9044591970152
256.9180959167988
256.9346997629527
256.955589026897
256.9815773372713
257.0128996614738
257.0492339188488
257.089815882821
257.1336068673386
257.1794828892934
257.2263866963129
257.2734367527692
257.3199693282023
257.3655489892066
257.4099413098968
257.453079704969
257.4950075996234
257.5358110897425
257.5755263051551
257.6140510038813
257.6510863831007
257.6861715654339
257.7188526483748
257.7489908915971
257.7771331352838
257.8047745519925
257.834324063218
257.8686492588958
257.9103139063
257.960836223841
258.0204094814088
258.0882842110791
258.1636120884573
258.2462791344785
258.3377386449258
258.4425467776154
258.5705205641817
258.735406195954
258.9418598418705
259.1576063911057
259.2885888714785
259.2017160342138
258.8126865201335
258.1698810693653
257.4424866780782
256.812736299783
256.3753677698352
256.1247670932383
256.0040614378302
255.9545524129985
255.9371098205788
255.9318007604095
255.9303992946434
255.9300775731034
255.9300132140827
255.9300019752673
255.9300002592663
255.9300000299095
255.9300000030345
255.930000000271
255.9300000000213
255.9300000000014
255.9300000000001
255.9299999999999
255.9300000000001
255.9299999999999
255.9299999999999
256.1100009405433
256.359803612447
256.6803388229777
256.6774114979883
256.757280098204
256.7919743062434
256.8289240711692
256.8607424948143
256.8886057862272
256.9136824762282
256.9364510762481
256.9579439725009
256.9793096714843
257.0017998722873
257.0265947103486
257.0546471664256
257.0865568300857
257.1224980256105
257.1622225168402
257.2051239877724
257.2503580830663
257.2969775351223
257.3440655259109
257.3908280055261
257.4366526976569
257.4811211421602
257.5240028246968
257.5652230004834
257.6048257182679
257.6429148209949
257.6795875986048
257.7148548970367
257.7485826102078
257.7804828270588
257.8102057155783
257.8375481476651
257.8627521448632
257.8867907984331
257.9114828677895
257.9392978908596
257.9728203866374
258.0140561227498
258.0639092626075
258.12216377686
258.1880104915905
258.2608314022921
258.3408769637649
258.4300755131697
258.5336870579635
258.6621170647002
258.8278995860298
259.030017682675
259.2254505208032
259.3107352960624
259.1574493471272
258.7043655978247
258.0273964259434
257.3062753090405
256.710344735313
256.3125160874794
256.0925340816453
255.9900378923247
255.9493235454347
255.9354276382309
255.9313317556398
255.930285634219
255.9300535783605
255.9300087938324
255.9300012634368
255.9300001589724
255.9300000175253
255.9300000016936
255.9300000001435
255.9300000000107
255.9300000000006
255.9300000000001
255.9299999999999
255.93
255.9299999999999
255.9299999999999
256.3168822897315
256.5226624020638
256.7961330836815
256.7824913635002
256.8474117062664
256.878832579105
256.9125979711069
256.9446389363658
256.9749396777848
257.0045846357435
257.0339285585659
257.0637253745284
257.0947321703204
257.1276741414715
257.163124297057
257.2014090725339
257.2425570847025
257.2862898681173
257.3320678537397
257.3791674969686
257.4267854524342
257.4741346653307
257.5205287337428
257.5654292813061
257.608470830867
257.6494536977657
257.6883272652175
257.7251534748535
257.7600658111691
257.7932104123114
257.8246861052223
257.8544858570866
257.8824763395995
257.908440123161
257.9322137559647
257.9539104610864
257.974174472723
257.9943549899216
258.0164703637586
258.042888261288
258.0757730712683
258.1165233291858
258.1654894218348
258.2221760033777
258.2858356839686
258.3561394163042
258.4337266753365
258.5210785561991
258.6242761241502
258.7541393887134
258.9209547329593
259.1159957417646
259.2837131333637
259.3125238120658
259.0839420365198
258.5654826952175
257.8614516174417
257.157284557732
256.603751338373
256.2498163554162
256.0615968170199
255.9770572870292
255.9446503118681
255.9339754926486
255.9309408069985
255.930194213173
255.9300349754299
255.9300054946862
255.9300007529672
255.9300000899857
255.9300000093757
255.9300000008514
255.9300000000673
255.9300000000046
255.9300000000001
255.93
255.9299999999999
255.9299999999999
255.93
255.93
256.5107149627028
256.6828948567716
256.9138880510867
256.895764675923
256.9495756654006
256.9810683616124
257.0153690067636
257.050774433841
257.0864316937436
257.1230875962553
257.1608372652369
257.2000300927029
257.2409568294789
257.2838145435397
257.3286388613225
257.3752628369404
257.4233170184792
257.4722561130649
257.5214202835303
257.5701046023173
257.6176366355326
257.6634352993552
257.707056218473
257.7482076044389
257.7867524599679
257.822688966737
257.8561254283578
257.8872397329214
257.9162356647194
257.94328837681
257.9684983838682
257.9918626265721
258.0132959338127
258.0327179830255
258.0502174256688
258.0662579523341
258.0818577013346
258.0986381675368
258.1186570587976
258.1440171717099
258.1763642409016
258.2165010526913
258.2643364497501
258.319243248012
258.3806380381117
258.448511558336
258.5239152981866
258.6099816474524
258.7136793008517
258.8458087579092
259.01293512409
259.1963780689755
259.327002644225
259.2881478401699
258.9777755769362
258.3969624397446
257.6766746492578
257.0012694246666
256.4976092363104
256.190079779464
256.0332901197638
255.9656272292069
255.9406864528149
255.9327889608891
255.9306332733347
255.9301250560786
255.930021463194
255.9300031985484
255.9300004133675
255.9300000462482
255.9300000044689
255.9300000003717
255.9300000000265
255.9300000000016
255.9300000000001
255.9299999999999
255.93
255.9299999999999
255.93
255.93
256.6918502979632
256.8425707368017
257.037414866352
257.0211343029771
257.068796133592
257.1038950022385
257.1425513489976
257.1843310540261
257.2278345400144
257.2733071313747
257.3204918207575
257.3692816227947
257.419501212791
257.4708838729056
257.5230471533907
257.5754897017718
257.6276196927116
257.6787946331004
257.7283783188075
257.7757913740104
257.8205595268178
257.862340924098
257.9009421226399
257.9363123532468
257.9685300338297
257.9977741138871
258.0242922439481
258.0483578558221
258.0702278115481
258.090098961051
258.1080840371189
258.1242174602209
258.1385158743095
258.1510952512741
258.1623350134813
258.173037745053
258.1845138181832
258.1985111838312
258.2169555888283
258.2415506658855
258.2733836085184
258.3127346023623
258.3592172611189
258.4122123950158
258.471368434121
258.5370035935387
258.6106210985751
258.6961202124357
258.8013078878511
258.9361725247464
259.1016471603658
259.2668974766767
259.3493839334788
259.2323209998604
258.8372978945092
258.2019618813662
257.4792663074198
256.844437082059
256.3962580873834
256.1355954880221
256.0085462132232
255.9560347319807
255.9374909240845
255.9318704644278
255.9304049369546
255.9300758931235
255.9300122883373
255.930001714013
255.9300002051212
255.9300000209357
255.9300000018055
255.9300000001295
255.9300000000075
255.9300000000005
255.93
255.93
255.93
255.9299999999999
255.9299999999999
255.9299999999999
256.8653063669913
257.0069091878613
257.1730641891128
257.1646887171618
257.211338301694
257.2534459629199
257.2998198942661
257.3504388903809
257.4035100945798
257.4587044368642
257.5153685931773
257.5729524307775
257.6308754156757
257.6885187174281
257.7452306436963
257.8003439772426
257.8532130171112
257.9032494030155
257.9499626612936
257.9929870108176
258.0321017576837
258.0672330774054
258.0984479052479
258.1259327787332
258.1499687443068
258.170896168516
258.1890788224076
258.2048627332939
258.2185417164199
258.2303325170237
258.2403783711565
258.248789161681
258.2557307953958
258.261551650755
258.2669199653207
258.2729152221999
258.28101426845
258.2929268366602
258.3102941953412
258.3343395517282
258.3656178714681
258.4040085343268
258.448984915874
258.5000455369496
258.557099479935
258.6207929027697
258.6931517140675
258.7789449286973
258.8865616404465
259.0239485931382
259.1841595061045
259.3224619304546
259.3448320804086
259.1410718023751
258.6633068895584
257.9860037969914
257.2765925384003
256.6928996910993
256.303335894863
256.0879597721415
255.9878564912604
255.9483543431613
255.9350409026176
255.9311968151417
255.9302450464731
255.930043117658
255.9300064873406
255.9300008283522
255.9300000886876
255.9300000077928
255.9300000005373
255.9300000000256
255.9300000000004
255.93
255.9300000000001
255.93
255.9299999999999
255.9299999999999
255.9299999999999
255.9299999999999
257.0391284452495
257.1834477525729
257.3286215287706
257.333091031708
257.3838401372788
257.4359268637679
257.4926679947768
257.5537886421459
257.6171734356995
257.6819185435318
257.7469840166826
257.8114487157266
257.8744400563943
257.9351373325643
257.9927910619127
258.0467439576082
258.0964606498038
258.1415473884346
258.1817692221398
258.2170515520504
258.2474752864973
258.2732579377867
258.2947306310664
258.3123059172505
258.3264449154137
258.3376194604807
258.3462772978803
258.3528093025949
258.3575303916406
258.3606790860684
258.3624498898064
258.3630607396505
258.3628550512628
258.3624147709717
258.3626495736962
258.3648109108607
258.3703931427023
258.3809134249274
258.397621710557
258.4212455612108
258.4518930905778
258.4891903413202
258.5326078148505
258.5818281010635
258.6370190658935
258.6991694257413
258.7709307543076
258.8579745163686
258.9687075322438
259.1073525827247
259.2567444437054
259.3574990210498
259.3080734330737
259.0127549843479
258.4596341251583
257.7568244032686
257.0765832127963
256.5521190743247
256.2214938455976
256.0480118590826
255.9712982952875
255.9424847076693
255.9332542256883
255.9307289653799
255.9301396291296
255.930022697171
255.9300030937065
255.9300003462212
255.9300000304671
255.9300000018731
255.9300000000389
255.929999999992
255.9299999999987
255.9299999999999
255.93
255.9299999999999
255.9299999999999
255.9299999999999
255.93
255.9299999999998
257.2217592243025
257.3802095271881
257.5114744506847
257.5335320421494
257.5930748535986
257.6576030733511
257.7264229063252
257.7986451066187
257.8718614691163
257.9446663559397
258.0157106310602
258.0838371682387
258.14804914837
258.2075151769897
258.2615858212793
258.3098025065752
258.3519065056565
258.3878335833031
258.4177036479384
258.441797300861
258.4605290711751
258.4744127033759
258.484026767987
258.4899769151809
258.4928611759613
258.4932358963117
258.4915894555459
258.4883251758094
258.4837635435043
258.4781678323515
258.4718005260378
258.4650052835602
258.4583029147638
258.452471551307
258.4485763059008
258.4479116829319
258.4518449220446
258.4615838925897
258.4779422317347
258.5012003152398
258.5311439286215
258.5672913370428
258.6092098813465
258.6567883393394
258.7104396393056
258.7715418167027
258.8434863301207
258.9327268440381
259.0467378264123
259.1839777889857
259.3150162526878
259.3666022963716
259.2356067699129
258.8488807999282
258.2332034106551
257.523668830867
256.8868496402499
256.4263393303014
256.1522098184277
256.0158543371568
255.9586043576
255.9382002216576
255.9320146590593
255.9304214832941
255.9300743342995
255.9300108670601
255.9300012754762
255.9300001114426
255.9300000054296
255.9299999997419
255.9299999999058
255.9299999999877
255.9299999999989
255.93
255.9299999999999
255.9299999999999
255.9299999999999
255.93
255.93
255.9299999999998
257.4244013375267
257.6073742149612
257.7307858684964
257.774429321244
257.8464946950299
257.9249679097146
258.0062180488395
258.0886214049252
258.1695315855475
258.2471907321021
258.3201016404356
258.3870817930475
258.4472440856159
258.4999884716349
258.5449965148085
258.5822118928787
258.611816613841
258.6341944149055
258.6498921285349
258.6595749132536
258.663984163319
258.6638949223823
258.6600786022744
258.6532680366057
258.6441293738231
258.6332398108392
258.6210772523723
258.6080241535026
258.5943927803173
258.580472950644
258.5666023050588
258.5532471490184
258.5410754222011
258.5309921254038
258.5241101961915
258.5216393941451
258.5247056756695
258.5341460673928
258.5503559146154
258.573264178858
258.6024713168915
258.6375073739543
258.6780897449493
258.7243028359176
258.776801705762
258.8374371416025
258.9104172310782
259.0026162372544
259.1192296133979
259.2507840739917
259.3543246708033
259.3454155283425
259.1266928277547
258.6545129784532
257.9934833917946
257.2962033110032
256.7138043072801
256.3182107453162
256.0957861025283
255.9909784129794
255.949271419456
255.9352100749182
255.9311960870283
255.9302303814474
255.9300364601544
255.9300045460856
255.9300003996231
255.9300000133751
255.9299999970888
255.9299999993044
255.9299999999118
255.9299999999922
255.9299999999994
255.9299999999999
255.9299999999999
255.9299999999999
255.93
255.9299999999999
255.93
255.9299999999998
257.658864250937
257.8754902849077
257.9967238562784
258.0645955710651
258.1517356291434
258.2440857998299
258.3361809983409
258.4257176140066
258.5099597675621
258.5870556025822
258.6556385882923
258.7148170662743
258.7641341559182
258.8035203996248
258.8332429323002
258.853842167237
258.8660685174683
258.8708162822527
258.8690646866833
258.8618234958256
258.8500887169178
258.8348048603455
258.8168364013955
258.7969455822512
258.7757793831922
258.7538655197599
258.7316222197881
258.7093835659552
258.6874439809797
258.6661190619247
258.6458165553238
258.6271013752797
258.6107343735176
258.5976608962019
258.5889343958422
258.5855768947158
258.588406689269
258.5978872140518
258.6140639261824
258.6366331144604
258.6651339069284
258.6991870498063
258.7386703441579
258.7838405050896
258.8356201671134
258.8964369525707