/*--------------------------------*- C++ -*----------------------------------*\
| =========                 |                                                 |
| \\      /  F ield         | OpenFOAM: The Open Source CFD Toolbox           |
|  \\    /   O peration     | Version:  v1912                                 |
|   \\  /    A nd           | Website:  www.openfoam.com                      |
|    \\/     M anipulation  |                                                 |
\*---------------------------------------------------------------------------*/
FoamFile
{
    version     2.0;
    format      ascii;
    class       volVectorField;
    location    "0.002";
    object      U;
}
// * * * * * * * * * * * * * * * * * * * * * * * * * * * * * * * * * * * * * //

dimensions      [0 1 -1 0 0 0 0];


internalField   nonuniform List<vector> 
16000
(
(114.3957123170772 3.885513897735301e-25 -9.951119424525402)
(115.2817213005036 -3.807189228672235e-22 -7.139962401886272)
(114.791249293179 1.558527287730208e-25 -9.359926676888197)
(114.812832301992 3.764334497211591e-22 -7.838328688882197)
(114.5325439830835 0 -8.689363362577033)
(114.406138032311 -4.492166340200704e-25 -8.328860332258154)
(114.2434106622292 -3.309284289694437e-22 -8.389494830750918)
(114.0783837332736 -3.395558561795225e-22 -8.429164529953121)
(113.9182683692809 -9.648905517843189e-25 -8.361338728428258)
(113.7356803737922 3.335250780421084e-22 -8.39733760451122)
(113.5519641750698 3.310552742144918e-22 -8.36077022913379)
(113.3586908613427 3.287533609169897e-22 -8.360851909885739)
(113.1619942673914 3.241880008586406e-22 -8.340477830076326)
(112.961113260615 -3.628014778312582e-26 -8.327198271097517)
(112.7544059350731 3.708078895409714e-26 -8.307417224203927)
(112.5414990154063 2.300130915804835e-24 -8.287960866878294)
(112.3204082354693 -3.146744588226606e-22 -8.264243946757517)
(112.090957814134 -3.137072074077891e-22 -8.238305384603226)
(111.8538972686286 2.454247166086641e-24 -8.208577202735768)
(111.610145470295 0 -8.175237296623193)
(111.362461856857 0 -8.13847435925976)
(111.1117018651022 2.597134484186187e-24 -8.097654266469114)
(110.8599936979982 -5.902534387869892e-22 -8.053825418119253)
(110.6073805651237 -5.819816235999805e-22 -8.005932278614633)
(110.3542530649037 0 -7.955322785879428)
(110.1000784260624 -5.688448315224657e-22 -7.900772739727818)
(109.8445834976758 -5.663014637196925e-22 -7.843609196346844)
(109.5874925795583 0 -7.782795872580705)
(109.3286640058516 -5.685184841621428e-24 -7.719506507589998)
(109.0682259428094 -1.848583320655268e-25 -7.653060447721024)
(108.8063555992822 0 -7.584506538006657)
(108.5434407320527 -1.156281948148011e-23 -7.513558555993971)
(108.2798570697206 0 -7.44123533618879)
(108.0160860420031 1.159857236196046e-23 -7.367628233354349)
(107.7525804530325 -1.121511578745668e-23 -7.293846250954774)
(107.4898563301564 0 -7.220327437930459)
(107.2283467211715 -1.188055790962331e-23 -7.148390908786158)
(106.9685859899411 0 -7.07887637969215)
(106.7109446188725 -1.028578086025974e-21 -7.01340835881647)
(106.455825916753 -1.047162822221315e-21 -6.953304536721301)
(106.2034549786793 -2.228345431834843e-23 -6.900603243849558)
(105.9539984495071 2.20122371631668e-23 -6.857307240951219)
(105.7075376404846 1.139844785711724e-21 -6.826148803565304)
(105.46415146011 1.157691609587081e-21 -6.810388148143667)
(105.2240352401026 0 -6.814460152544613)
(104.9875019684675 -2.050083748070055e-23 -6.844386429995485)
(104.7549280943888 -1.999147264677542e-23 -6.908522590223465)
(104.5265315973715 0 -7.018860509653035)
(104.3016038430989 -3.812122706540037e-23 -7.192963364526338)
(104.0778836180257 3.936205179995607e-23 -7.455276702021118)
(103.8493332689054 0 -7.831870439949679)
(103.6078110344978 -4.291611950112919e-23 -8.3270058945423)
(103.34625983548 -4.598456635788964e-21 -8.875411184426589)
(103.0691502144196 -2.786591806760383e-21 -9.293473243404422)
(102.8015662934508 4.475159714250931e-22 -9.294590032967102)
(102.5871529985046 4.379688189911098e-21 -8.623152465799015)
(102.4666799301734 -1.681477450523802e-23 -7.244030181781199)
(102.4506421466335 1.578674452987731e-25 -5.419642619744074)
(102.5110698651471 7.309385717202415e-21 -3.578532554616568)
(102.6014360009845 5.187590466431155e-21 -2.078944343810127)
(102.6840494924308 3.115902424698175e-21 -1.063201084967226)
(102.7417194118882 3.187984999824991e-21 -0.479611361001216)
(102.7745529686734 1.404574704696491e-21 -0.1912899086032093)
(102.790286682452 2.716919489445623e-22 -0.06760881571512291)
(102.7967432255969 5.434180532271252e-26 -0.02121844414293461)
(102.7990373211406 0 -0.005924417710181503)
(102.799748491989 -7.22447082095756e-24 -0.001474164577773564)
(102.7999417969089 -1.691965407038591e-24 -0.0003274724401281686)
(102.79998804373 3.512325736562188e-25 -6.505566442636869e-05)
(102.7999978162738 -1.284917352501417e-29 -1.157950583866804e-05)
(102.7999996446609 1.287120749937252e-30 -1.849993664997731e-06)
(102.7999999484227 1.612617947890314e-27 -2.657908914542692e-07)
(102.7999999933094 -3.339347087785298e-31 -3.439934754050908e-08)
(102.7999999992241 0 -4.017422129430186e-09)
(102.7999999999195 -2.825243577469907e-30 -4.239513264532138e-10)
(102.7999999999926 -2.759311145678158e-31 -4.046016070549053e-11)
(102.7999999999994 0 -3.469500619528545e-12)
(102.8 4.564351391853549e-36 -2.886475215217827e-13)
(102.8000000000001 0 -3.615391863916752e-14)
(102.7999999999998 -2.006326591423282e-36 -4.112389921497782e-15)
(114.1426754830419 -3.606566900652764e-22 -11.37396331307038)
(115.1358600834069 -4.083929034687385e-22 -8.042903221086458)
(114.4448062883148 -3.368086781162402e-22 -10.71388590370564)
(114.6224460596355 -4.060548799657298e-22 -8.776150987723002)
(114.2327003446674 0 -9.953065378199998)
(114.1628137278081 3.851891982193047e-22 -9.340533482990681)
(113.9651782337972 3.552673506927679e-22 -9.543504300318171)
(113.8067622147168 -2.068458020390442e-24 -9.498241212044871)
(113.6336468992707 -3.605167499913671e-22 -9.455835417599461)
(113.4442772200925 -3.575197330191167e-22 -9.468332806671381)
(113.2508877563744 1.19596001164227e-24 -9.427613905880143)
(113.0488783084381 -3.491511392340227e-22 -9.415580766582055)
(112.843298803545 -3.483615431655067e-22 -9.385513022741033)
(112.633762734435 -3.441362792075344e-22 -9.361066804261069)
(112.4179644839551 -3.404766410539042e-22 -9.329960161777962)
(112.195390319188 3.399989457837519e-22 -9.298284308287025)
(111.963610738202 3.384835069190706e-22 -9.261758173882539)
(111.7224948292561 3.216683909924689e-22 -9.22207519034048)
(111.4728971321814 3.282328852950642e-22 -9.177913088292556)
(111.2160777639074 0 -9.12935385337215)
(110.9553132422313 0 -9.076681372859079)
(110.6917587316491 3.007650246089694e-24 -9.019355442972545)
(110.4280072778078 -6.167910226244957e-22 -8.958365575120954)
(110.1641471043373 -6.184776403954655e-22 -8.892735386411568)
(109.9007404103909 1.206012108567094e-23 -8.823725046872864)
(109.6371291783159 1.220543159109342e-23 -8.750119603129335)
(109.3730468701384 -6.388228875344192e-24 -8.673202253848403)
(109.1080988397815 5.830916303542693e-22 -8.591922973972089)
(108.8421333876141 5.665722776436093e-22 -8.507465620673591)
(108.5752386540219 0 -8.419158972912925)
(108.3076137196028 -5.449189285445119e-22 -8.328097992335532)
(108.0396682319362 -5.491173954879408e-22 -8.23404167195284)
(107.7718075523712 2.532597780463579e-23 -8.138077823654813)
(107.504547706429 1.301361425973933e-23 -8.040362160006012)
(107.2383447065773 5.064134482559611e-22 -7.942071524212639)
(106.9737278911646 5.143129906757595e-22 -7.84371631901536)
(106.7111192460386 -3.767669375263115e-23 -7.746673407643748)
(106.451032343417 0 -7.651829333670589)
(106.193799665624 1.255562021677578e-23 -7.560869504746059)
(105.9398218361482 1.033531072411532e-21 -7.475164755756721)
(105.6892596680319 1.018607264815477e-21 -7.39680706321538)
(105.4422350865504 -2.278743398957191e-23 -7.32781910766843)
(105.1986965091282 2.38363767392623e-23 -7.270872891201915)
(104.9585084676077 0 -7.229006962654138)
(104.7215643193802 0 -7.206234143036836)
(104.4877318699005 -2.270348168053829e-23 -7.20785959807835)
(104.2569764991985 -2.228844662612847e-23 -7.241285019433404)
(104.0290782442131 -8.373094548590796e-23 -7.317323839065416)
(103.8033111135435 -1.790678393860463e-21 -7.452629469239982)
(103.5776373885888 -1.896424100663605e-21 -7.672586337591754)
(103.3475201148947 0 -8.008870800052877)
(103.1069018463177 -4.555555118518651e-23 -8.478782917929468)
(102.8526085513259 8.901552365212108e-23 -9.036075698333521)
(102.5944280066545 -3.325657440999504e-21 -9.510723750742635)
(102.3633202977541 -1.267232677457976e-22 -9.605824767787842)
(102.205944037176 0 -9.025249370887336)
(102.1595124119369 -7.389568876356364e-21 -7.685141326201226)
(102.2245097694216 -1.740779540551896e-20 -5.824745644799465)
(102.3612428044161 3.131957394231881e-23 -3.890055914154542)
(102.5135416694068 1.139088287440666e-20 -2.280771866335013)
(102.6387025920408 -1.740686251969436e-25 -1.1743315043649)
(102.7211870288134 -2.398186521722672e-23 -0.5320783768810036)
(102.7664109320035 -6.898252783781444e-24 -0.2126747082524293)
(102.7874622297217 -3.044188359433626e-22 -0.07516640310507011)
(102.7958877803438 -1.047263291854031e-22 -0.02353898129795514)
(102.7988113929246 -3.052412977606453e-23 -0.006542860736161572)
(102.7996966843758 0 -0.001616844725751079)
(102.7999315342935 0 -0.0003557902894619614)
(102.7999863074486 -3.807018682351493e-25 -6.983028251691926e-05)
(102.7999975701231 -7.11708634581203e-26 -1.224484889984406e-05)
(102.7999996168114 0 -1.921538410755197e-06)
(102.7999999462376 0 -2.703224774001325e-07)
(102.7999999932814 0 -3.414730581129685e-08)
(102.7999999992518 2.513763770012788e-29 -3.879578259282417e-09)
(102.7999999999257 5.265541944878046e-30 -3.96918702995144e-10)
(102.7999999999934 4.994727458221656e-31 -3.660771442554163e-11)
(102.7999999999995 2.141813129550341e-32 -3.066511499980883e-12)
(102.8 0 -2.62924430551805e-13)
(102.8000000000001 0 3.430560135251376e-14)
(102.7999999999997 0 7.14886792293087e-14)
(113.7536940393009 0 -12.85318410332124)
(114.9060754293057 4.375279904737284e-22 -8.947446762115836)
(113.9973889516935 7.296234711110947e-22 -12.11949283849962)
(114.3505437369248 8.764784804518061e-22 -9.71723525160969)
(113.8537836099138 1.812974421738429e-24 -11.26457979676292)
(113.8510083754675 -4.156140115481221e-22 -10.35977920423686)
(113.6112825599991 -3.767340067675324e-22 -10.73662236335744)
(113.4650462744863 -3.975729821714938e-22 -10.58463672330351)
(113.2768112281147 -2.487199299637725e-24 -10.57782820959894)
(113.0817471269058 3.801536764227518e-22 -10.56107652992777)
(112.8785712430815 3.776982072154586e-22 -10.51742299386255)
(112.6680328831631 3.744545884858017e-22 -10.49151127224446)
(112.453485748183 3.754613596052849e-22 -10.4511106492048)
(112.2348858778766 0 -10.41427650393558)
(112.009406898297 0 -10.37073934811248)
(111.7763251943397 0 -10.32547149090371)
(111.5330013452983 6.048609524480157e-24 -10.27465914260463)
(111.2794251824723 -6.172287108803251e-24 -10.21958990231413)
(111.016630087412 3.434461195472177e-22 -10.1591979190138)
(110.7463162122025 -4.842260900724618e-25 -10.09354700080057)
(110.472153813783 -3.322991380430377e-22 -10.02297378679974)
(110.1956755655046 0 -9.947128651047594)
(109.9197849156402 0 -9.866876674056048)
(109.6446735964263 6.181146481496562e-22 -9.781403878190185)
(109.3710328802633 6.326631570613678e-22 -9.691803945974845)
(109.0981469232602 1.386258892389391e-23 -9.596950129726418)
(108.8257815984157 0 -9.49801388228799)
(108.553462466841 1.405413817784802e-23 -9.394010191648738)
(108.2810738629498 1.411400332896817e-23 -9.2860837169851)
(108.0086748367759 0 -9.173646219155042)
(107.7365253430799 -5.527814383723364e-22 -9.057811312123128)
(107.4650410894314 -1.084734620869017e-21 -8.938446563152283)
(107.1946866766134 -1.038602821757938e-21 -8.816694473220101)
(106.9259794521755 -1.050794872884123e-21 -8.692827907465425)
(106.6594042836294 5.55390061322363e-23 -8.568095052473581)
(106.3954535706434 1.025922732498984e-21 -8.44311993151398)
(106.1345402567246 4.275661697338635e-22 -8.319348598179616)
(105.8771030913418 0 -8.197763037239739)
(105.6234346802912 0 -8.080117315220516)
(105.3738514160174 0 -7.967865628513405)
(105.128451375003 -5.057878687818864e-23 -7.863167175534264)
(104.8872664959563 -1.094317332303413e-21 -7.768104936623823)
(104.6501247908345 -9.66617831482418e-22 -7.685368659942827)
(104.416722251612 9.621229094377699e-23 -7.617931276921901)
(104.186688768346 0 -7.569601737761626)
(103.9595495275465 0 -7.545252787485864)
(103.7348357483961 -9.09817788373206e-23 -7.551572789284203)
(103.5118861085137 -9.28764992473317e-23 -7.598259995580666)
(103.2896394064661 -4.299501375314946e-24 -7.700710066642896)
(103.0659390958126 0 -7.883957584875224)
(102.8366850889721 -2.213630271215982e-21 -8.182830878826255)
(102.5969677071908 -2.536231588341692e-21 -8.62449315795836)
(102.3463330500555 2.670012465276296e-22 -9.17938112341006)
(102.0995862687854 0 -9.692378785574084)
(101.8951622725009 -5.546475265831767e-22 -9.862751038998148)
(101.7864918665526 3.628158189112271e-21 -9.362253560891187)
(101.8118443978934 -1.910737258649428e-23 -8.062107552280832)
(101.963771915566 9.114623420781835e-21 -6.176032342144898)
(102.1874515082621 1.667585231450992e-20 -4.162305486111985)
(102.4117008303266 1.243988926619078e-20 -2.457403663742994)
(102.5864665143479 3.758062069172745e-21 -1.271210130113243)
(102.6977635461761 2.505145994242725e-23 -0.5774173461791443)
(102.757224373592 0 -0.2309050764091362)
(102.7843105042958 3.342319367740443e-22 -0.0814919366403196)
(102.7949419659851 1.058303902807014e-22 -0.02543450415125918)
(102.7985634219841 0 -0.007032892574073867)
(102.799640012595 0 -0.001725395251428775)
(102.799920270087 -1.896226670546057e-24 -0.0003761639046117283)
(102.799984370158 -1.835600800620943e-26 -7.298621790950013e-05)
(102.7999972844068 7.084299370583318e-26 -1.262280384008581e-05)
(102.7999995812907 -1.108985295474348e-26 -1.948941547735117e-06)
(102.7999999426458 -3.245215028576488e-27 -2.690621161334157e-07)
(102.7999999930133 -2.119263416206291e-28 -3.326439388378171e-08)
(102.7999999992428 0 -3.688329941495004e-09)
(102.7999999999268 -2.467569993303042e-30 -3.671942060685628e-10)
(102.7999999999936 -2.26179208929366e-31 -3.278995067660905e-11)
(102.7999999999994 3.638240451653326e-34 -2.640858189179979e-12)
(102.8 1.406107273674369e-35 -1.883138695818657e-13)
(102.8000000000002 0 9.276176089773559e-14)
(102.7999999999997 -3.971829637089625e-35 8.837684438650918e-14)
(113.2143396411084 1.954231330037324e-24 -14.37737464174491)
(114.5887623439527 8.95795705690053e-25 -9.867642816085606)
(113.4382037529017 0 -13.56575188475801)
(113.9989189967113 0 -10.67780422242752)
(113.3885579584114 2.407138732777903e-24 -12.61497698192983)
(113.4656929203389 4.546528028495862e-22 -11.39921086953336)
(113.1800506884788 4.00440744734323e-22 -11.9670549683901)
(113.0501138077216 0 -11.69450497360888)
(112.8459798989905 0 -11.72928005406764)
(112.6463146293487 0 -11.67979041855275)
(112.4337859348509 0 -11.63326591477558)
(112.2151001012835 0 -11.59217581450245)
(111.9916250104897 1.182137684255064e-23 -11.54047659301678)
(111.7635411944245 0 -11.48988410849768)
(111.5277502217363 0 -11.432469795052)
(111.2833100478354 0 -11.37189684562966)
(111.0276722467674 1.26759369337681e-23 -11.30491736423255)
(110.7610513801817 3.673864827858655e-22 -11.23245304523536)
(110.4847433493491 3.473855674537486e-22 -11.15368585186877)
(110.2009501578776 0 -11.0687506504298)
(109.9135688294433 -3.479545398756113e-22 -10.97800270603441)
(109.624542278212 -3.405354210726169e-22 -10.88133416223451)
(109.3368789323667 0 -10.77944797029975)
(109.0509271833622 0 -10.67173312058777)
(108.76743550678 -6.398133041979234e-22 -10.5590736146732)
(108.4857194838604 -6.242145121146246e-22 -10.44049677452252)
(108.2055867431257 6.407731476994461e-22 -10.3170185811463)
(107.926555694837 6.255112097497646e-22 -10.18779815095166)
(107.6485722207174 2.979081484312801e-23 -10.05390927588751)
(107.371705906428 0 -9.914927521045355)
(107.0962858721954 0 -9.771968546988736)
(106.8227443596473 -5.9447437675104e-23 -9.625074895724568)
(106.5515967780244 0 -9.475440615064278)
(106.2833516321652 5.241615509786862e-22 -9.323509140481461)
(106.0185029474139 5.739839771915936e-22 -9.170602859269678)
(105.7574855491706 5.764276413245836e-23 -9.017499782622476)
(105.5006787011803 -1.576628299593572e-24 -8.865722167982536)
(105.2484192891926 0 -8.71638315021068)
(105.0009413466676 0 -8.571313728043471)
(104.7584437886554 0 -8.432076222496448)
(104.5209489046571 -9.524910218851751e-22 -8.300902084826685)
(104.2883664629012 -1.016382080127982e-21 -8.179951221177079)
(104.0604033522163 1.060204813912775e-22 -8.071945663369775)
(103.8365886544464 1.041190959794202e-22 -7.979839398360331)
(103.6163374304779 1.115389143286495e-21 -7.907316769672629)
(103.3989077802181 1.269353641236134e-21 -7.858957147983188)
(103.1835020620442 -9.876670963040235e-23 -7.840872708510245)
(102.9691167337674 0 -7.861733960746915)
(102.7543468593414 -1.436980619839156e-21 -7.935443101557072)
(102.5367491659444 -3.571484403195741e-21 -8.085764074796456)
(102.3119959693522 -1.96252450258579e-21 -8.34864894046183)
(102.0752211027494 2.497801904365536e-21 -8.75802119252668)
(101.8272149013919 2.774010361920072e-21 -9.297897642181978)
(101.5871231691996 0 -9.82763981419863)
(101.4021740836469 0 -10.04745012437559)
(101.3365194127548 -3.555844220462105e-21 -9.60597255137456)
(101.4335537291172 -7.466907984647022e-21 -8.338021789260953)
(101.6782950192395 8.896316206747211e-23 -6.434714543677807)
(101.9974662489792 0 -4.362269846740465)
(102.30122887655 2.664072925441883e-22 -2.585637424177944)
(102.5305144328095 0 -1.34009120295577)
(102.6730801158066 9.724263718331261e-24 -0.6086783937992812)
(102.7477311685413 -3.313456614739988e-23 -0.2429552470191838)
(102.7811256588401 0 -0.08543911003213961)
(102.7940091342669 -5.01311640688522e-25 -0.02652773572906706)
(102.7983255521456 0 -0.007284621063934802)
(102.7995873163165 3.998864088664452e-25 -0.001771785575039156)
(102.7999101630931 2.889699891897764e-25 -0.000382270403033007)
(102.7999827041021 1.786742941234808e-26 -7.32634821627804e-05)
(102.7999970514006 -7.99183095539693e-26 -1.249070075763939e-05)
(102.7999995543631 -1.089849611854722e-26 -1.897132727785817e-06)
(102.7999999402276 8.369603877549605e-29 -2.570691032781118e-07)
(102.7999999928782 -1.974042921540823e-29 -3.112165464009419e-08)
(102.7999999992456 2.187748223788615e-30 -3.370787948914135e-09)
(102.799999999929 0 -3.270178794606892e-10)
(102.7999999999939 9.511267103287219e-33 -2.835671220762095e-11)
(102.7999999999994 3.803040458213285e-34 -2.179859713197367e-12)
(102.7999999999999 -5.700855644151086e-36 -1.344217608726785e-13)
(102.8000000000001 0 1.253786812631955e-13)
(102.7999999999997 0 1.164505264728055e-13)
(112.5253854573137 4.48145037069317e-24 -15.92957137346689)
(114.1782840254142 4.63919807049473e-24 -10.81563037872344)
(112.7709434896778 0 -15.03925620224815)
(113.5597406488641 5.086991924763218e-22 -11.67136083784287)
(112.835737365168 8.404857255729638e-22 -13.99478797638528)
(112.9989498062727 4.883996745036015e-22 -12.47182044612532)
(112.6671481152627 -2.8326373934167e-24 -13.2302415384314)
(112.5551884484886 -4.593681563372328e-22 -12.83494455657274)
(112.3352312003787 3.387275111818254e-25 -12.91119925527454)
(112.1314434364765 4.328844473014292e-22 -12.82840342585242)
(111.9098777059463 0 -12.77756404193744)
(111.6829782884906 0 -12.72028554802744)
(111.450154028093 4.394430487176638e-22 -12.65575805756832)
(111.2116858248588 -4.445554199239383e-25 -12.58968390608445)
(110.9644964696082 -1.289563226883944e-23 -12.51640606949685)
(110.7075092586937 1.321486119628839e-23 -12.43830608448456)
(110.4385720337768 -3.782615495034356e-22 -12.35272705069615)
(110.1582398403207 -3.71821980182522e-22 -12.26032743070799)
(109.8681549468526 -3.933069666756088e-22 -12.16051499604252)
(109.5710226146184 1.493230493279644e-23 -12.05357052194045)
(109.2708087524488 3.038485028243517e-23 -11.93985809511273)
(108.9698368656634 0 -11.81950762915352)
(108.6710362856979 3.127903229838268e-23 -11.69307009113057)
(108.3749423515609 0 -11.56013695370351)
(108.0823018817578 3.194698799321098e-23 -11.42138826248835)
(107.7925480102774 0 -11.2760494687142)
(107.505547569364 3.35045164553931e-23 -11.12497579672878)
(107.2208904505114 -5.388783770171216e-22 -10.96754287107842)
(106.938605759437 -6.183407167416423e-22 -10.80474893094936)
(106.6588163458531 -5.074911985327648e-22 -10.63640778404499)
(106.3819182247075 -1.17747846791249e-21 -10.46363904163094)
(106.1083686744664 -5.432782111021287e-22 -10.28672121332037)
(105.8387093945592 -5.295846326712296e-22 -10.10690724877201)
(105.5734277478304 -5.1622364106084e-22 -9.924857421751415)
(105.3129895083976 -6.240267016162355e-23 -9.741973702890409)
(105.0577504140148 6.323376510442082e-23 -9.559222627894398)
(104.8080139141128 5.537537385457447e-22 -9.378207111976929)
(104.5639910243636 4.854088919233014e-22 -9.200198783336285)
(104.3258176932838 -4.842969102608626e-22 -9.027107000335169)
(104.0935507151429 -4.832991258422663e-22 -8.860620861332171)
(103.8671028692358 1.15420678908615e-22 -8.703038475942474)
(103.6462404622627 -1.098772110015355e-22 -8.556597773655525)
(103.4305298797246 -1.0100471096256e-21 -8.42403993112284)
(103.2193331403762 2.005941863197613e-24 -8.308302785548646)
(103.0118661365676 1.286302899382681e-21 -8.21297003261162)
(102.80716215986 1.040872642530177e-22 -8.142404363371947)
(102.6041625761919 0 -8.102269995749449)
(102.4015931221537 -1.920201702600294e-22 -8.100371736126714)
(102.1977520308883 0 -8.149181134693226)
(101.9897875672715 0 -8.270871545229108)
(101.7727000066346 2.252281256263006e-21 -8.501344771566263)
(101.5407973032778 2.618385648084394e-21 -8.878788440632567)
(101.2951546353111 -3.450536677996721e-22 -9.397191174193972)
(101.0590418877379 0 -9.927491406171189)
(100.8900210230561 -2.335696084151302e-22 -10.17213134083146)
(100.8658757968363 0 -9.764259594076176)
(101.0370638201981 -7.606569232711238e-21 -8.513259997833668)
(101.380294770508 -2.551519487269429e-25 -6.59487560648699)
(101.8011544680133 9.119086921475052e-21 -4.48160500692389)
(102.1888472757402 3.676090100780193e-23 -2.658181223454648)
(102.4747434382569 0 -1.376188043587856)
(102.6490761775689 -8.872517628703941e-23 -0.6233411043165096)
(102.7387660921956 -4.16396128176608e-23 -0.2477274201767735)
(102.7782173436349 0 -0.08660940025048715)
(102.7931914656727 1.174197930064174e-22 -0.02669484574227727)
(102.7981270311114 3.864920614766612e-23 -0.007265905968461198)
(102.7995459188619 4.566934640931037e-25 -0.001749010718086362)
(102.7999028288926 -1.820140148231161e-24 -0.0003728674025703574)
(102.7999816237535 -3.593441508055628e-25 -7.049148314646888e-05)
(102.7999969253845 6.271198794398984e-26 -1.18337623781876e-05)
(102.7999995443603 9.781212842390378e-27 -1.766441230257832e-06)
(102.7999999401313 1.493268866947253e-27 -2.347747742940166e-07)
(102.7999999930187 1.626636032375801e-28 -2.782013372959433e-08)
(102.7999999992768 2.13705640997469e-30 -2.942913759755476e-09)
(102.7999999999335 0 -2.781960877377698e-10)
(102.7999999999945 8.828553232586611e-33 -2.351282545619575e-11)
(102.7999999999994 1.278933407930347e-32 -1.778154165983401e-12)
(102.7999999999999 2.223015076536981e-33 -8.908652301410267e-14)
(102.8 -9.150357370524287e-36 1.836100556160628e-13)
(102.7999999999998 1.313841361513261e-34 1.587905325648468e-13)
(111.7015672805381 -1.027382682360014e-21 -17.50179407626222)
(113.6716369691795 -1.064483399147679e-21 -11.81207745188472)
(112.0035036691359 -4.589276404629638e-22 -16.53256131314877)
(113.0266589138329 -5.512185962620218e-22 -12.71598700220245)
(112.1954971969451 -4.435930072793477e-22 -15.39639655055622)
(112.4433127173328 0 -13.59188888271013)
(112.0688346299814 -5.757540872747664e-24 -14.52123426709143)
(111.9734251307976 0 -14.01355028263628)
(111.7385501623864 0 -14.12393528877845)
(111.5301535245093 -6.871961246037944e-24 -14.01006671793336)
(111.2994489056725 4.462532157653264e-22 -13.95185881790766)
(111.0635686816344 -4.465943269889703e-25 -13.87738617480512)
(110.8203183820272 -4.166100442333539e-22 -13.79783111415453)
(110.5700108093752 -4.385248912970233e-22 -13.71405182685263)
(110.3098844861518 -8.763907216551998e-22 -13.62229526920678)
(110.0389124036322 1.663465387366149e-23 -13.52385330542787)
(109.7555987176664 3.974101457454521e-22 -13.41664692255934)
(109.4609430959329 1.676625549416476e-23 -13.30118510618124)
(109.1569914477431 3.250703376301165e-23 -13.17709595739547)
(108.8468775137989 5.045666433309514e-23 -13.04483823077781)
(108.5345098890427 6.884685502385625e-23 -12.90480205998451)
(108.2224921375063 3.310943563978233e-22 -12.75730960833139)
(107.9135500915678 3.902455181406985e-22 -12.6028067535409)
(107.6084040905571 0 -12.44106644100593)
(107.3077738520499 3.64978014446563e-23 -12.27261189702507)
(107.0112774028171 6.477008581318898e-22 -12.09689958187216)
(106.7188686782179 6.257498856041427e-22 -11.91465868296372)
(106.4302776440375 6.438304286862104e-22 -11.72554438641703)
(106.1456341795733 5.131122367544925e-22 -11.5305069098918)
(105.865145558356 6.416091970995621e-22 -11.32965909976313)
(105.5892626474103 -7.360818606052803e-23 -11.12415074823971)
(105.3184625823075 -9.961823309890806e-22 -10.91454311345632)
(105.0532777460722 -5.177481887479171e-22 -10.70216741803373)
(104.7941483166295 0 -10.48793332002481)
(104.5414650472916 5.582776586774483e-22 -10.27333273264856)
(104.2954721808424 1.294630658755259e-22 -10.05954154934687)
(104.0563501910483 -3.457463410184162e-22 -9.848246135078169)
(103.8241542734964 0 -9.640890269849088)
(103.5988811963398 1.229388726535291e-22 -9.439457771650117)
(103.3804182243412 0 -9.24576825831968)
(103.1685352405806 9.395948032178832e-22 -9.06217021815773)
(102.9628304146306 1.087868171144856e-22 -8.890964090534689)
(102.7627083897221 -9.717622354242734e-22 -8.734881317973155)
(102.5673519238854 -7.871651384158467e-22 -8.596821755569115)
(102.3757777760966 -1.871282946822843e-21 -8.480260935062804)
(102.1868078497378 -1.994177314263158e-21 -8.38937439581078)
(101.9991548785136 -1.172090675774493e-21 -8.329463709840335)
(101.811318856687 -1.476147763466975e-21 -8.307629642539384)
(101.6213296808804 -3.022023162791963e-21 -8.335123963466087)
(101.425835651252 -3.289734086082837e-21 -8.432627383704943)
(101.2188367555436 -3.627576529423872e-22 -8.635487222020874)
(100.9932732369063 2.576863797711495e-21 -8.984233601128583)
(100.7501471374628 -7.283504614404555e-22 -9.478999662426423)
(100.5173256834261 3.087295607588454e-22 -9.99782242552644)
(100.3642899602485 -2.205033360541869e-22 -10.2443283820028)
(100.3841750161594 0 -9.842639946626976)
(100.6346094180001 1.138294135506269e-22 -8.589001640885863)
(101.082083939494 9.735004399442936e-21 -6.65373366231485)
(101.6086186025987 9.38384533088094e-21 -4.515863105772854)
(102.0814278051369 -2.716645913127751e-22 -2.671130371608338)
(102.4230757658828 4.280189671801722e-21 -1.377042010060485)
(102.6276578308978 4.406340376265134e-21 -0.6202159655669853)
(102.7311164723705 1.936468453527445e-21 -0.2447717210657903)
(102.775869621581 3.986184353742375e-22 -0.08487142661122174)
(102.7925764628672 -2.290770322870278e-23 -0.02590947599297273)
(102.7979910753099 3.573282044968712e-24 -0.006975564853869028)
(102.7995211594446 8.746011738057741e-24 -0.001658609272534166)
(102.7998993280598 -1.896084476254253e-25 -0.0003487635921881777)
(102.799981310395 -4.14539309668416e-25 -6.493332344912185e-05)
(102.7999969328178 -6.472445258507782e-26 -1.071759287153142e-05)
(102.7999995545541 -2.076884963366705e-26 -1.570250093132572e-06)
(102.7999999426929 -1.046624100964959e-27 -2.044702526768871e-07)
(102.7999999934626 3.325210417147674e-29 -2.369338453414562e-08)
(102.7999999993381 -3.535623473325961e-30 -2.446188029878521e-09)
(102.7999999999404 0 -2.251855309835236e-10)
(102.7999999999952 1.057174648915893e-31 -1.852514665420177e-11)
(102.7999999999996 2.187821087869044e-32 -1.392172997081435e-12)
(102.8 -3.226237988719703e-35 -4.202779945311144e-14)
(102.8000000000001 -4.029203306399217e-36 1.307199740868587e-13)
(102.7999999999999 1.159480594355633e-35 1.405670782621492e-13)
(110.7751314253521 0 -19.08217070184455)
(113.0745994676984 2.870349970340099e-24 -12.86059279702791)
(111.1504138364456 4.903564101968947e-22 -18.03325508517527)
(112.3988400953318 5.877283354091644e-22 -13.81765548375717)
(111.4707726805756 5.451054849977272e-25 -16.81052385062863)
(111.7937813940876 5.627468017055843e-22 -14.76724765768462)
(111.3823745732339 4.816524156655433e-22 -15.83344533012081)
(111.2984841323778 5.308570199577917e-22 -15.23526734155164)
(111.0497577322489 -7.239437260757221e-24 -15.36627598009739)
(110.8348296006884 1.4534534072151e-23 -15.2259809562488)
(110.5940178880966 9.628529981815801e-22 -15.15615719979934)
(110.3474322364501 4.81531748574345e-22 -15.06322132035952)
(110.0918879766281 1.662373614830159e-23 -14.96573944850597)
(109.8277341115155 4.636627686746228e-22 -14.86138619858141)
(109.5527814578562 4.532940119335787e-22 -14.74781503710597)
(109.2662905705415 0 -14.62553032083506)
(108.9675971304911 -4.512044956024839e-22 -14.4930085785144)
(108.658206854476 -4.211307087065606e-22 -14.35070859938508)
(108.340578663636 3.794599900171959e-23 -14.1984953891415)
(108.0181380978939 3.852423445396644e-23 -14.03699317974562)
(107.6946483239469 1.683578359647785e-24 -13.86665072197551)
(107.3728495140381 -3.944404423442019e-23 -13.68792288134535)
(107.0552117406991 4.000553284609186e-22 -13.5012151904)
(106.7426150514938 3.871971974525828e-22 -13.30646451027875)
(106.435762130725 -7.74171501148811e-23 -13.1041145922631)
(106.1344995011159 -7.761388434092602e-23 -12.89388542309201)
(105.8388990609314 0 -12.67645152009702)