/*--------------------------------*- C++ -*----------------------------------*\
| =========                 |                                                 |
| \\      /  F ield         | OpenFOAM: The Open Source CFD Toolbox           |
|  \\    /   O peration     | Version:  v1912                                 |
|   \\  /    A nd           | Website:  www.openfoam.com                      |
|    \\/     M anipulation  |                                                 |
\*---------------------------------------------------------------------------*/
FoamFile
{
    version     2.0;
    format      ascii;
    class       scalarField;
    location    "0.002/lagrangian/iceFoamCloud";
    object      age;
}
// * * * * * * * * * * * * * * * * * * * * * * * * * * * * * * * * * * * * * //


261
(
0.002017857142857149
0.002004464285714292
0.002002186588921289
0.00198715379008747
0.001984473523628727
0.001972043302370789
0.001964585169616026
0.00196512269269745
0.001951012711810061
0.001942546723277627
0.001942899472799812
0.00193039891160739
0.001921469939327089
0.001916112555958908
0.001917388123427522
0.001903548216393056
0.001893662568511293
0.001887731179782236
0.001889708309358589
0.001876896509703825
0.001866931776639009
0.00185981411016414
0.001855543510279219
0.001857509341972278
0.001843477370921822
0.001832563615660357
0.001824768076187881
0.001820090752504396
0.001822862499872388
0.001809629331014791
0.001798802192858575
0.001790381085403741
0.001784366008650288
0.001780756962598215
0.001779553947247525
0.001766320778389928
0.001755493640233712
0.001747072532778878
0.001741057456025425
0.001737448409973353
0.001736245394622662
0.001723012225765065
0.00171218508760885
0.001703763980154015
0.001697748903400562
0.00169413985734849
0.0016929368419978
0.001679703673140202
0.001668876534983987
0.001660455427529153
0.001654440350775699
0.001650831304723628
0.001649628289372937
0.00163639512051534
0.001625567982359124
0.00161714687490429
0.001611131798150837
0.001607522752098765
0.001606319736748074
0.001593086567890478
0.001582259429734262
0.001573838322279427
0.001567823245525974
0.001564214199473902
0.001563011184123212
0.001549778015265615
0.0015389508771094
0.001530529769654565
0.001524514692901112
0.00152090564684904
0.001519702631498349
0.001506469462640753
0.001495642324484537
0.001487221217029702
0.001481206140276249
0.001477597094224177
0.001476394078873487
0.00146316091001589
0.001452333771859674
0.00144391266440484
0.001437897587651387
0.001434288541599315
0.001433085526248624
0.001419852357391028
0.001409025219234812
0.001400604111779977
0.001394589035026524
0.001390979988974453
0.001389776973623762
0.001376543804766165
0.001365716666609949
0.001357295559155115
0.001351280482401662
0.00134767143634959
0.001346468420998899
0.001333235252141302
0.001322408113985087
0.001313987006530252
0.001307971929776799
0.001304362883724727
0.001303159868374037
0.00128992669951644
0.001279099561360224
0.00127067845390539
0.001264663377151937
0.001261054331099865
0.001259851315749175
0.001246618146891578
0.001235791008735362
0.001227369901280527
0.001221354824527075
0.001217745778475002
0.001216542763124312
0.001203309594266715
0.0011924824561105
0.001184061348655665
0.001178046271902212
0.00117443722585014
0.001173234210499449
0.001160001041641852
0.001149173903485637
0.001140752796030802
0.001134737719277349
0.001131128673225277
0.001129925657874587
0.00111669248901699
0.001105865350860774
0.00109744424340594
0.001091429166652487
0.001087820120600415
0.001086617105249724
0.001073383936392127
0.001062556798235911
0.001054135690781077
0.001048120614027624
0.001044511567975552
0.001039999999999999
0.001025599999999999
0.001014399999999999
0.001006399999999999
0.001001599999999999
0.0009999999999999994
0.0009855999999999992
0.0009743999999999994
0.0009663999999999994
0.0009615999999999993
0.0009599999999999989
0.0009455999999999991
0.0009343999999999992
0.0009263999999999993
0.0009215999999999993
0.0009199999999999993
0.0009055999999999992
0.0008943999999999994
0.0008863999999999993
0.0008815999999999995
0.0008799999999999996
0.0008655999999999997
0.0008543999999999994
0.0008463999999999998
0.0008415999999999996
0.0008399999999999998
0.0008255999999999999
0.0008144
0.0008063999999999999
0.0008015999999999998
0.0007999999999999995
0.0007855999999999996
0.0007743999999999996
0.0007663999999999999
0.0007615999999999999
0.0007599999999999996
0.0007455999999999997
0.0007343999999999996
0.0007263999999999997
0.0007215999999999997
0.00072
0.0007056
0.0006944000000000002
0.0006864000000000001
0.0006816000000000001
0.00068
0.0006656000000000002
0.0006544000000000002
0.0006464000000000003
0.0006416000000000003
0.0006399999999999998
0.0006255999999999999
0.0006144000000000001
0.0006064000000000003
0.0006016000000000002
0.0006000000000000001
0.0005856
0.0005744000000000001
0.0005664000000000002
0.0005616000000000002
0.0005600000000000004
0.0005456000000000004
0.0005344000000000004
0.0005264000000000003
0.0005216000000000002
0.0005200000000000004
0.0005056000000000004
0.0004944000000000003
0.0004864000000000002
0.0004816000000000002
0.0004799999999999998
0.0004655999999999999
0.0004544
0.0004464
0.0004416000000000001
0.0004399999999999999
0.0004255999999999999
0.0004143999999999999
0.0004064
0.0004015999999999999
0.0004000000000000002
0.0003856000000000002
0.0003744000000000001
0.0003664000000000001
0.0003616000000000001
0.0003600000000000002
0.0003456000000000002
0.0003344000000000002
0.0003264000000000002
0.0003216000000000001
0.0003199999999999998
0.0003055999999999999
0.0002943999999999999
0.0002864
0.0002816000000000001
0.0002799999999999998
0.0002655999999999999
0.0002543999999999999
0.0002464
0.0002416
0.0002400000000000002
0.0002256000000000002
0.0002144000000000002
0.0002064000000000002
0.0002016000000000001
0.0002000000000000003
0.0001856000000000003
0.0001744000000000003
0.0001664000000000002
0.0001616000000000001
0.0001599999999999999
0.0001455999999999999
0.0001344
0.0001264
0.0001216000000000001
0.0001199999999999999
0.0001056
9.440000000000003e-05
8.640000000000008e-05
8.160000000000011e-05
8.000000000000021e-05
6.55999999999999e-05
5.440000000000024e-05
4.640000000000005e-05
4.160000000000018e-05
)


// ************************************************************************* //
