/*--------------------------------*- C++ -*----------------------------------*\
| =========                 |                                                 |
| \\      /  F ield         | OpenFOAM: The Open Source CFD Toolbox           |
|  \\    /   O peration     | Version:  v1912                                 |
|   \\  /    A nd           | Website:  www.openfoam.com                      |
|    \\/     M anipulation  |                                                 |
\*---------------------------------------------------------------------------*/
FoamFile
{
    version     2.0;
    format      ascii;
    class       Cloud<basicReactingMultiphaseParcel>;
    location    "0.002/lagrangian/iceFoamCloud";
    object      coordinates;
}
// * * * * * * * * * * * * * * * * * * * * * * * * * * * * * * * * * * * * * //

261
(
(0.151016881080515 0.4244915594597425 0.06515122917093071 0.3593403302888118) 10377 20587 2
(0.7033137582944465 0.1398004276160016 0.008542693236775161 0.1483431208527768) 10377 20688 1
(0.4669139172728461 0.2665430413635769 0.1333695337353547 0.1331735076282223) 10377 20587 2
(0.6016447022262847 0.01745982793042699 0.1991776488868576 0.1817178209564307) 2377 4647 1
(0.1629158981657331 0.4185420509171335 0.1842596200806438 0.2342824308364898) 10377 20587 2
(0.5344658924939564 0.005241218576157355 0.2275258351768646 0.2327670537530218) 2377 4805 1
(0.1384540464169513 0.1858587146465186 0.2449142621450058 0.4307729767915244) 2297 4647 1
(0.4180614506268184 0.2909692746865908 0.2631386708963072 0.02783060379028374) 10377 20587 2
(0.1997568404703975 0.4001215797648012 0.3515169258235522 0.04860465394124916) 10297 20586 2
(0.1180741302925579 0.2122249461221933 0.2287379887315278 0.4409629348537211) 2297 4646 1
(0.1545905149062235 0.2882821760125521 0.1344225665343362 0.4227047425468883) 2297 4646 1
(0.2107555745223092 0.2912760655543845 0.1033461471844609 0.3946222127388454) 2377 4805 1
(0.04922003893703662 0.1268313313198355 0.3485586492116462 0.4753899805314817) 10377 20688 1
(0.03296842081341441 0.4835157895932929 0.4219536632605079 0.06156212633278486) 2297 4646 2
(0.1208967777182445 0.02847536801524504 0.4110762431256326 0.4395516111408778) 2297 4647 1
(0.01192994135132797 0.4940350293243361 0.04960583879996582 0.4444291905243701) 2378 4805 2
(0.1612676758935583 0.3610200823223163 0.4193661620532209 0.05834607973090461) 2298 4646 1
(0.1705648294747974 0.1237472363254105 0.4147175852626014 0.2909703489371907) 10378 20688 1
(0.1559064109579514 0.4220467945210243 0.03713478615493514 0.3849120083660892) 2298 4646 2
(0.2409172966765326 0.3795413516617337 0.0405293274557956 0.3390120242059382) 2298 4646 2
(0.2700109994966729 0.3141403361248739 0.3649945002516636 0.05085416412678972) 10378 20688 1
(0.09465423003165953 0.4526728849841703 0.06082304114067753 0.3918498438434927) 2298 4649 2
(0.2864759006388626 0.3567620496805687 0.3109852496799502 0.04577680000061855) 10378 20688 2
(0.2734540882952237 0.3632729558523881 0.3111486434957994 0.05212431235658879) 10378 20688 2
(0.3775211290835525 0.3112394354582239 0.301170395998028 0.01006903946019573) 2298 4646 2
(0.4711114978450659 0.2296405778644329 0.2644442510774671 0.03480367321303423) 2378 4805 1
(0.5297281940897668 0.2351359029551165 0.2084155957631789 0.02672030719193773) 10378 4808 2
(0.2126878867133261 0.1611184374672751 0.2325376191760619 0.393656056643337) 10298 20589 1
(0.6184169911052423 0.07850737174852655 0.1907915044473788 0.1122841326988524) 10298 20586 1
(0.5808835059347756 0.04543582310349383 0.1641224239291185 0.2095582470326121) 10298 20589 1
(0.5770386125167456 0.08341820266776863 0.1280624910738586 0.2114806937416273) 10298 20589 1
(0.2942731865092444 0.3528634067453779 0.08183378808897861 0.2710296186563992) 10378 4808 2
(0.8174370290261979 0.09128148548690111 0.08962925016044562 0.001652235326455399) 2378 4805 2
(0.3531369986409651 0.3234315006795175 0.05202437565691512 0.2714071250226023) 10378 4808 2
(0.8206543688828654 0.02916917250761697 0.08967281555856732 0.06050364305095041) 2378 4805 1
(0.3531370459719312 0.3234314770140345 0.003608712743037492 0.3198227642709969) 10378 4808 2
(0.8882446603430288 0.0523336580308934 0.003544011797592238 0.05587766982848559) 10298 20588 1
(0.8563255424081331 0.01977829622180578 0.05205893257412764 0.07183722879593339) 2298 4649 1
(0.4325419658738139 0.2837290170630931 0.2304722443642128 0.05325677269888032) 10298 20589 2
(0.3531371391105994 0.2299147337024129 0.3234314304447004 0.09351669674228749) 10378 4808 1
(0.5340721375800765 0.2329639312099618 0.05054898952132575 0.1824149416886361) 10378 20589 2
(0.669958134519257 0.1531666933900238 0.01185423935034771 0.1650209327403716) 10298 20588 1
(0.2942734466498115 0.1719940898722119 0.3528632766750942 0.1808691868028825) 10378 4808 1
(0.6447787440670538 0.1776106279664731 0.1143067467929579 0.06330388117351529) 2378 4807 2
(0.5297285769438013 0.01655218205004119 0.2351357115280993 0.2185835294780583) 10378 4808 1
(0.4302577064974244 0.2848711467512877 0.1880530752399539 0.0968180715113338) 10378 20589 2
(0.4915104295927901 0.1745243210478669 0.07972046415573816 0.2542447852036049) 10298 20588 1
(0.4727778945980418 0.2636110527009791 0.0007798386140676658 0.2628312140869114) 10298 20589 2
(0.270829596511774 0.1864555844923599 0.1781296172517531 0.364585201744113) 2298 4648 1
(0.3971081944343389 0.3014459027828306 0.02172293381654171 0.2797229689662889) 10378 20689 2
(0.2402995165543852 0.3798502417228073 0.3746936389363174 0.005156602786490059) 2298 4648 2
(0.1494520534896396 0.2517471644852843 0.173526808769896 0.4252739732551802) 2298 4648 1
(0.3220079968777558 0.1777713800228398 0.1612246215382823 0.3389960015611221) 2378 4807 1
(0.2080467709718901 0.3959766145140548 0.1467589983555367 0.2492176161585183) 2298 4648 2
(0.09124363490793252 0.4543781825460336 0.3221501971411786 0.1322279854048552) 2298 4648 2
(0.01387851627278614 0.4930607418636069 0.4430057837757337 0.0500549580878733) 2379 4807 2
(0.04174833608452554 0.4791258319577373 0.3862070519656647 0.09291877999207261) 2379 4807 2
(0.03641907877037288 0.4817904606148137 0.1653550102805713 0.3164354503342423) 2298 4648 2
(0.1971859135638025 0.4014070432180987 0.3881829760522093 0.01322406716588949) 2299 4492 2
(0.1248417624148886 0.4375791187925557 0.2158044511429823 0.2217746676495734) 2379 4807 2
(0.1193359425623456 0.4403320287188273 0.3019524552565463 0.1383795734622809) 10379 20689 2
(0.2764379786601198 0.3617810106699401 0.2907820840770138 0.07099892659292623) 2299 4492 2
(0.2517227391603243 0.3741386304198379 0.04203195519490729 0.3321066752249305) 10379 20689 2
(0.3840395878733937 0.2162055813233425 0.3079802060633032 0.09177462473996076) 2299 4648 1
(0.2553050550688399 0.3723474724655801 0.2141596088379093 0.1581878636276707) 10379 20689 2
(0.4641505407964858 0.2097121364606364 0.2679247296017571 0.05821259314112076) 2299 4648 1
(0.2905244205667867 0.04765569730681706 0.3547377897166067 0.3070820924097896) 10379 20591 1
(0.3346067964816624 0.3326966017591688 0.1044932962172711 0.2282033055418978) 2379 4810 2
(0.2798850180837478 0.3600574909581261 0.2044840257610094 0.1555734651971166) 10379 4810 2
(0.5774719828892824 0.211264008555359 0.1928488153715028 0.01841519318385598) 2379 4807 2
(0.3367210975599082 0.1067718306561883 0.2248676205638576 0.3316394512200459) 10299 20591 1
(0.720747838978739 0.04263047595486069 0.1396260805106306 0.09699560455576989) 10299 20588 1
(0.05594313044095166 0.4720284347795242 0.1029792625911714 0.3690491721883528) 10379 4810 2
(0.03101248455245263 0.3348878555644419 0.1496059021593318 0.4844937577237737) 10299 20591 1
(0.1119286848967254 0.4440356575516374 0.05942921692906127 0.384606440622576) 10379 4810 2
(0.3225242859860911 0.2466009361332105 0.09213692087374392 0.3387378570069544) 10299 20591 1
(0.08630009450129177 0.3469237527990821 0.1099261999502722 0.4568499527493541) 10299 20591 1
(0.4884051606866915 0.2557974196566544 0.06848926362693653 0.1873081560297177) 2379 4651 2
(0.6570738961553225 0.1693092709020332 0.002153781020305586 0.1714630519223388) 2299 4651 1
(0.6649107662146632 0.1675446168926685 0.1212746054235303 0.04627001146913817) 10299 20591 2
(0.1679143481146832 0.3404242489582628 0.4160428259426584 0.07561857698439552) 10379 4810 1
(0.669170872508922 0.104359637246099 0.06105492649944002 0.165414563745539) 2379 4810 1
(0.8940140596016574 0.05299297019917142 0.0232860314030505 0.02970693879612078) 10379 20690 2
(0.272617516133681 0.3636912419331595 0.07124295215162073 0.2924482897815388) 10379 20591 2
(0.5576492864604337 0.07463345166329183 0.1465419051064913 0.2211753567697833) 2379 4810 1
(0.4461277695256058 0.09810376230459485 0.1788323529326022 0.2769361152371972) 2379 4810 1
(0.6358079832527275 0.1820960083736362 0.07061492937810984 0.1114810789955264) 2379 4809 2
(0.5114383410413756 0.0824802347112505 0.2442808294793122 0.1618005947680617) 2379 4651 1
(0.5431322168986639 0.1079956732669506 0.1204382182837175 0.2284338915506681) 10299 20590 1
(0.1116984776217704 0.4441507611891148 0.2349528245989284 0.2091979365901865) 10299 20591 2
(0.1001598265955581 0.2208723265348713 0.2290477601673497 0.4499200867022209) 2299 4651 1
(0.2798856446488728 0.03415041819589326 0.3600571776755636 0.3259067594796703) 10379 4810 1
(0.2493745748259291 0.2822684428113483 0.09304426977568726 0.3753127125870354) 2299 4650 1
(0.3703883544768381 0.2393941798697847 0.07541164289179622 0.3148058227615809) 2379 4809 1
(0.1838501203487926 0.4080749398256037 0.3007586362511376 0.1073163035744661) 10379 20591 2
(0.0703574008465353 0.2053039425855411 0.2595173569911913 0.4648212995767323) 2299 4650 1
(0.1748859815868688 0.1328256763700028 0.2797313328365629 0.4125570092065656) 10299 20590 1
(0.0610134308608925 0.4694932845695537 0.02463728144618859 0.4448560031233652) 2379 4809 2
(0.1120733752430367 0.3989865852457654 0.04497672713271633 0.4439633123784816) 2379 4809 1
(0.1387218296364665 0.1135547299168767 0.31708435526489 0.4306390851817667) 2379 4809 1
(0.03001457002321997 0.2578138106867646 0.2271789043016254 0.4849927149883901) 10299 20590 1
(0.02844447627513205 0.4857777618624339 0.2064041335303541 0.27937362833208) 2300 4650 2
(0.06797967101662891 0.4660101644916855 0.126762114666896 0.3392480498247896) 10380 20690 2
(0.07801124258408165 0.4609943787079592 0.3995213489356387 0.0614730297723205) 10380 20690 2
(0.1986158786176991 0.4006920606911505 0.1554729685418696 0.2452190921492808) 2300 4650 2
(0.006285703732615248 0.4968571481336924 0.04621714069669294 0.4506400074369994) 2300 4653 2
(0.2154533523595842 0.2988757187391171 0.3922733238202079 0.09339760508109089) 10380 20690 1
(0.2377871544958915 0.3811064227520543 0.2883612432878746 0.09274517946417955) 10380 20690 2
(0.0530763202573941 0.473461839871303 0.1817455565696071 0.2917162833016959) 2380 4812 2
(0.3667911118198259 0.2232415938347237 0.3166044440900871 0.0933628502553633) 2380 4809 1
(0.4045458519407917 0.2977270740296041 0.1771134671083833 0.1206136069212209) 10380 20690 2
(0.4422942951736794 0.2788528524131603 0.06748545211962599 0.2113674002935344) 10380 20690 2
(0.2674911941192518 0.06960008692827255 0.3662544029403741 0.2966543160121016) 10380 20593 1
(0.1177646385199801 0.44111768074001 0.2733328045454759 0.167784876194534) 2380 4653 2
(0.4773732000570481 0.261313399971476 0.07933372992518099 0.181979670046295) 2380 4812 2
(0.6545271403282338 0.1556916858579893 0.1727364298358831 0.01704474397789382) 10380 20690 1
(0.6512123625605268 0.03020856534672692 0.1743938187197367 0.1441852533730096) 2380 4809 1
(0.4902836398741749 0.1215268528084581 0.1333313272544546 0.2548581800629126) 10300 20593 1
(0.7266379978886073 0.1366810010556962 0.1285229142352011 0.00815808682049534) 2380 4809 2
(0.1416390057334438 0.4291804971332781 0.2935098022078629 0.1356706949254152) 2300 4653 2
(0.3998190610215105 0.3000904694892447 0.1004805337859438 0.1996099357033009) 2380 4653 2
(0.9725047909394763 0.01374760453026195 0.009045558968390353 0.004702045561871467) 2300 4653 2
(0.4258819181358877 0.2870590409320561 0.004654221361111327 0.2824048195709447) 10380 4812 2
(0.4204821258122768 0.2792487278794631 0.01051020921439836 0.2897589370938616) 10300 20593 1
(0.8016829907199701 0.08649747313592974 0.01266103150408524 0.09915850464001476) 2300 4653 1
(0.8449349922599566 0.04216638552008273 0.035366118349939 0.07753250387002172) 2300 4652 1
(0.01297338968147684 0.4790817085358585 0.01443159662340309 0.4935133051592616) 2300 4653 1
(0.4258820530924295 0.1809007294229502 0.2870589734537852 0.106158244030835) 10380 4812 1
(0.6882172184103008 0.1558913907948496 0.02312908738596865 0.132762303408881) 10300 20593 2
(0.732628511403279 0.001732450239006165 0.1319532940593544 0.1336857442983604) 2300 4653 1
(0.05320131408823404 0.3197132912347589 0.4733993429558829 0.1536860517211242) 10380 4812 1
(0.6776775557663043 0.08486028160819033 0.0763009405086575 0.1611612221168479) 10380 20691 1
(0.3139220538264716 0.3430389730867643 0.1641895140465893 0.178849459040175) 10380 20593 2
(0.4773726964628641 0.03167561102540238 0.2296380407431656 0.261313651768568) 2380 4812 1
(0.4897557661515138 0.2551221169242431 0.1395386381740882 0.1155834787501549) 2300 4652 2
(0.159330494260966 0.420334752869517 0.212786882115884 0.207547870753633) 10380 20593 2
(0.4701140100209379 0.1341234329561164 0.1308195620334146 0.264942994989531) 10380 20691 1
(0.1551626303583717 0.1570690409039915 0.2653496439168228 0.4224186848208141) 2300 4653 1
(0.06165121874775341 0.4691743906261232 0.2986011874188804 0.170573203207243) 10380 20593 2
(0.1768164064030396 0.09629587952935464 0.4115917967984801 0.3152959172691255) 2380 4653 1
(0.2228646971734888 0.3885676514132556 0.09818106152981619 0.2903865898834394) 2380 4811 2
(0.2396993821371901 0.3801503089314051 0.2450540567684412 0.1350962521629637) 2380 4811 2
(0.228837100240467 0.0814308693699637 0.3041505805098029 0.3855814498797665) 2380 4811 1
(0.1396914700117506 0.4301542649941247 0.1500068880243895 0.2801473769697352) 10380 20691 2
(0.04849467401598118 0.4757526629920095 0.3899245299428232 0.08582813304918613) 2380 4811 2
(0.03302715062439229 0.483486424687804 0.4750006372677297 0.008485787420074111) 2380 4811 2
(0.04685349920045986 0.07390111548243031 0.4026721349173398 0.4765732503997701) 10300 20592 1
(0.09369669158729615 0.2633157456480394 0.453151654206352 0.1898359085583125) 10381 20691 1
(0.1667674731375674 0.1480226188461305 0.4166162634312163 0.2685936445850858) 10381 20691 1
(0.1456249938415538 0.427187503079223 0.3324890348383708 0.09469846824085221) 2301 4652 2
(0.1703651660672548 0.4148174169663726 0.2243473329595729 0.1904700840067997) 10381 20691 2
(0.1828578682008887 0.4085710658995557 0.1982437763626917 0.2103272895368639) 10381 20691 2
(0.3125317596334928 0.1770961455650127 0.3437341201832536 0.166637974618241) 10381 20691 1
(0.2224033780620611 0.05296682620048726 0.3358314847684822 0.3887983109689694) 10301 20595 1
(0.2733100669247256 0.05481116148653861 0.3085338050510986 0.3633449665376371) 10301 20595 1
(0.5113545059082657 0.2443227470458672 0.01751310261413073 0.2268096444317364) 2301 4652 2
(0.402102320486602 0.1836197224024186 0.2989488397566991 0.1153291173542803) 2381 4811 1
(0.353106791995578 0.323446604002211 0.09980981438333361 0.2236367896188772) 2381 4814 2
(0.05941785698704088 0.4702910715064796 0.2546236284850734 0.2156674430214062) 2381 4655 2
(0.6074227598434293 0.1962886200782855 0.1781121794125312 0.01817644066575402) 10381 4814 2
(0.7603877375332265 0.064919956853596 0.1198061312333865 0.05488617437979085) 2301 4652 1
(0.5793097660464943 0.06040032728647008 0.1499447896902829 0.2103451169767529) 10301 20595 1
(0.7910026687975102 0.1044986656012449 0.06587741816148138 0.03862124743976351) 2301 4496 2
(3.582937309699324e-05 0.4999820853134515 0.4335046566033295 0.06647742871012201) 2381 4814 2
(0.3562123403100107 0.2435954545197928 0.07829837532520187 0.3218938298449945) 10301 20595 1
(0.4783941110909947 0.2608029444545028 0.09328799970941203 0.1675149447450905) 2381 4655 2
(0.5754655089553963 0.1347611796638178 0.2122672455223018 0.07750606585848425) 10381 20595 1
(0.953779276436557 0.02311036178172157 0.01210092700347178 0.0110094347782497) 2301 4654 2
(0.531921989979101 0.2257706400231801 0.2340390050104493 0.008268364987269496) 10381 20595 1
(0.2806898202674541 0.3596550898662731 0.006292408487322695 0.3533626813789502) 10381 20595 2
(0.1298551284000652 0.4350724357999674 0.411448584101461 0.0236238516985064) 10301 20595 2
(0.2317881734861372 0.3841059132569315 0.02251127285013838 0.361594640406793) 10381 20595 2
(0.235788896802481 0.3821055515987595 0.06209855049074343 0.3200070011080161) 10381 20595 2
(0.695141403188035 0.1524292984059826 0.1064862567639117 0.04594304164207075) 10381 20595 2
(0.3477238516413236 0.2171382222290121 0.3261380741793382 0.1089998519503262) 2381 4655 1
(0.05789144590621498 0.355878515148554 0.1151757618983387 0.4710542770468925) 2301 4655 1
(0.2775826976629668 0.3612086511685165 0.2093230967815311 0.1518855543869855) 10301 20595 2
(0.1009128352788287 0.2220965815622188 0.2274470007983669 0.4495435823605856) 2381 4814 1
(0.5255810026749731 0.2372094986625136 0.02683894431810045 0.210370554344413) 2301 4654 2
(0.4833204772825127 0.1098064169102981 0.1485333444484456 0.2583397613587436) 10381 20692 1
(3.538716896680462e-05 0.2028844394523696 0.2970978669631471 0.4999823064155166) 2381 4814 1
(0.5055312294262485 0.07721061380039089 0.170023771486485 0.2472343852868756) 2381 4813 1
(0.1058286389532936 0.4470856805233533 0.2764442837300075 0.1706413967933456) 10381 20595 2
(0.2049586092664385 0.3588685199828929 0.03865217538388791 0.3975206953667808) 2301 4654 1
(0.1925996029260373 0.4037001985369812 0.3634800494345592 0.040220149102422) 2301 4654 2
(0.2610704959048188 0.3694647520475905 0.3151847878758655 0.05427996417172513) 2381 4813 2
(0.2062134925227481 0.07216709141296994 0.324726162325656 0.396893253738626) 10381 20692 1
(0.2010205050226475 0.2825005285553402 0.116989218933336 0.3994897474886762) 2381 4813 1
(0.04744460807969593 0.001530869024359421 0.4747468269357927 0.476277695960152) 10381 20692 1
(0.01067262339103189 0.06878279216223492 0.4258808961422492 0.4946636883044841) 10381 20692 1
(0.07457549636076816 0.3227585234828756 0.1399537283367404 0.4627122518196158) 2381 4813 1
(0.02361635660553308 0.4881918216972335 0.3571557343702231 0.1310360873270103) 2381 4813 2
(0.07533056286373721 0.2076923270803035 0.4623347185681313 0.2546423914878279) 10302 20594 1
(0.05632663048921015 0.4718366847553949 0.3896103400610112 0.08222634469438382) 2302 4654 2
(0.08662616743204533 0.4566869162839775 0.4115673805639418 0.04511953572003542) 10382 20692 2
(0.2045449089126842 0.3977275455436579 0.3550686559548171 0.04265888958884075) 2382 4813 2
(0.1946268580229911 0.4026865709885045 0.2320633852627988 0.1706231857257056) 2382 4813 2
(0.2415475119094653 0.3792262440452673 0.06061229367675901 0.3186139503685083) 2382 4813 2
(0.3238954393856385 0.3380522803071807 0.2174848549408894 0.1205674253662914) 2302 4654 2
(0.2810825506820167 0.00636341842622291 0.3594587246589916 0.3530953062327687) 10382 20597 1
(0.1918722581584647 0.4040638709207677 0.1108051174893493 0.2932587534314183) 2382 4816 2
(0.3533981400837412 0.3233009299581294 0.001708158065694729 0.3215927718924347) 2302 4657 2
(0.5053889874558274 0.2473055062720863 0.1202820620524263 0.1270234442196599) 2302 4654 2
(0.6381976997250698 0.09748401478255647 0.1809011501374651 0.08341713535490873) 2302 4654 1
(0.4029070968513811 0.07783457167001007 0.2207118799042994 0.2985464515743095) 10302 20597 1
(0.2976150721305038 0.3511924639347482 0.2490288767016491 0.102163587233099) 2382 4657 2
(0.3427321738998269 0.3286339130500865 0.1062634395013679 0.2223704735487188) 2302 4657 2
(0.3893812396341771 0.3053093801829114 0.1230372427408353 0.1822721374420762) 2302 4657 2
(0.3957107764990684 0.1319953050270416 0.3021446117504658 0.1701493067234242) 10382 20597 1
(0.0479927029174779 0.476003648541261 0.3754158170880771 0.100587831453184) 2382 4816 2
(0.7362077604793305 0.1318961197603348 0.04162507764907363 0.09027104211126105) 2302 4657 2
(0.5001339600342637 0.2499330199828682 0.1393778335159009 0.1105551864669672) 2382 4657 2
(0.7320236645912571 0.1339881677043714 0.08264052007473091 0.05134764762964061) 2302 4657 2
(0.02278622295177634 0.4886068885241118 0.3982340686062694 0.09037281991784243) 2302 4657 2
(0.1720542776068862 0.4139728611965568 0.3571858959534563 0.05678696524310076) 2302 4657 2
(0.9513156854483769 0.02434215727581154 0.006031420134680584 0.01831073714113087) 10382 20692 2
(0.1439121177574702 0.4189658828277436 0.009078058293521362 0.4280439411212649) 2382 4816 1
(0.3165094153959894 0.3380868804599053 0.3417452923020053 0.00365841184209998) 10382 20597 1
(0.7046334741630612 0.1476832629184693 0.03383723846127501 0.1138460244571944) 10382 20597 2
(0.5755500056056385 0.1393987172352086 0.07282627996197222 0.2122249971971807) 2382 4816 1
(0.62558065740073 0.1016825044458295 0.1872096712996351 0.0855271668538055) 10382 4816 1
(0.6118278262585977 0.1940860868707011 0.06614070947410068 0.1279453773966005) 10382 20597 2
(0.6609252797536975 0.03353862903505781 0.1359987310880935 0.1695373601231513) 2302 4657 1
(0.7362483685405731 0.1083899050090303 0.02348591072068311 0.1318758157297135) 2382 4815 1
(0.7011963152582184 0.1030001721111488 0.04640167025974205 0.1494018423708909) 2382 4815 1
(0.2586445004119665 0.3706777497940169 0.2038919287034864 0.1667858210905303) 10302 20597 2
(0.4526274637545149 0.0961978145707254 0.1774884535520171 0.2736862681227425) 2302 4657 1
(0.09509218865306339 0.4524539056734683 0.1816239201373737 0.2708299855360946) 10382 20597 2
(0.2398313653044497 0.1232605404219447 0.2568237769258305 0.3800843173477751) 2382 4816 1
(0.2424188075614931 0.1420364438324588 0.2367541523867948 0.3787905962192534) 2302 4657 1
(0.4463789498911262 0.06386176381351448 0.2129487612409225 0.2768105250544369) 10382 20693 1
(0.08946965829122906 0.217852750325211 0.2374124205291746 0.4552651708543854) 2302 4657 1
(0.4001532720844819 0.299923363957759 0.2790005187075699 0.02092284525018924) 10382 20693 2
(0.2925341908859099 0.353732904557045 0.02675663503519989 0.3269762695218452) 10302 20597 2
(0.3252551837872882 0.3373724081063559 0.2001763400285759 0.13719606807778) 10382 20693 2
(0.1158860548538671 0.1207583007743135 0.4420569725730665 0.321298671798753) 2382 4657 1
(0.2784980704790187 0.3566709541457787 0.004080010614712128 0.3607509647604906) 10382 20693 1
(0.133525733464196 0.433237133267902 0.05613637096549125 0.3771007623024107) 10302 20597 2
(0.15150585507166 0.42424707246417 0.2766813966802084 0.1475656757839616) 2382 4815 2
(0.0821053187517384 0.4589473406241309 0.07684103567327473 0.382106304950856) 2382 4815 2
(0.1491884285883369 0.4254057857058317 0.05599939799618637 0.3694063877096451) 10382 20693 2
(0.09943562280634947 0.4502821885968253 0.3955094054904389 0.05477278310638634) 2382 4815 2
(0.08140087456975427 0.1871921741040294 0.2721073886110935 0.4592995627151228) 2382 4815 1
(0.001484445849716912 0.4618633311426615 0.4992577770751415 0.03739444593248004) 2383 4815 1
(0.09011215280790572 0.09447293402447626 0.4549439235960471 0.3604709895715709) 10383 20693 1
(0.03525928057151753 0.03957305677248915 0.4823703597142412 0.4427973029417522) 10303 20596 1
(0.05816888064541152 0.4108616614649676 0.4709155596772943 0.06005389821232667) 2383 4815 1
(0.05447925990480346 0.4727603700475983 0.007600892521722148 0.4651594775258761) 2303 4659 2
(0.1701782709650364 0.4149108645174819 0.08400205255768706 0.3309088119597947) 10383 20693 2
(0.1824105745612979 0.408794712719351 0.03746113433497732 0.3713335783843737) 2383 4818 2
(0.1036295230877359 0.04671541527583335 0.4014698231802988 0.448185238456132) 10303 20599 1
(0.0488989219728707 0.4755505390135646 0.06210869807702649 0.4134418409365382) 2303 4659 2
(0.330760389471234 0.01801549061687399 0.334619805264383 0.3166043146475089) 10383 20693 1
(0.3217683378761831 0.2823433915046916 0.3391158310619085 0.05677243955721676) 2383 4815 1
(0.3592052659426549 0.3108211614532707 0.3203973670286726 0.009576205575401871) 2383 4815 1
(0.4113021195189502 0.09396341238607969 0.2943489402405247 0.2003855278544452) 10383 20693 1
(0.4139760817673626 0.2930119591163187 0.2632336351016086 0.02977832401470994) 2303 4656 2
(0.3659075574018697 0.3170462212990651 0.2567417333205732 0.06030448797849203) 10383 4818 2
(0.5095784063777068 0.09048214350970464 0.2452107968111465 0.1547286533014421) 10383 20693 1
(0.3692759860952997 0.3153620069523502 0.07654006523962749 0.2388219417127226) 2303 4659 2
(0.5201644588015373 0.162249998585003 0.2399177705992313 0.07766777201422841) 2383 4815 1
)


// ************************************************************************* //
