/*--------------------------------*- C++ -*----------------------------------*\
| =========                 |                                                 |
| \\      /  F ield         | OpenFOAM: The Open Source CFD Toolbox           |
|  \\    /   O peration     | Version:  v1912                                 |
|   \\  /    A nd           | Website:  www.openfoam.com                      |
|    \\/     M anipulation  |                                                 |
\*---------------------------------------------------------------------------*/
FoamFile
{
    version     2.0;
    format      ascii;
    class       Cloud<basicReactingMultiphaseParcel>;
    location    "0.002/lagrangian/iceFoamCloud";
    object      positions;
}
// * * * * * * * * * * * * * * * * * * * * * * * * * * * * * * * * * * * * * //

261
(
(-0.571857075298021 -0.05 0.06000007336399946) 10377
(-0.5732101201317971 -0.05 0.03200003598184451) 10377
(-0.5734412472637498 -0.05 0.05000005491781815) 10377
(-0.5749585693958826 -0.05 -0.04600003897820315) 2377
(-0.5752312340987322 -0.05000000000000001 0.06000006299795105) 10377
(-0.5764846986614528 -0.05 -0.04800003886567696) 2377
(-0.5772382080849012 -0.05 -0.07000005850119714) 2297
(-0.577187078524474 -0.05000000000000001 0.05200004951955388) 10377
(-0.5786079358597901 -0.05000000000000001 0.1000000649786013) 10297
(-0.5794631462461387 -0.05 -0.1120000669917962) 2297
(-0.5794297128218635 -0.05 -0.1060000628917345) 2297
(-0.5806882150371275 -0.05 -0.04000002575291881) 2377
(-0.5815882531262084 -0.05 0.01000000879854517) 10377
(-0.5821281099887584 -0.05 -0.0940000486809634) 2297
(-0.58200325775266 -0.05 -0.07000004822839968) 2297
(-0.583394407427013 -0.05 -0.03000001471088011) 2378
(-0.5843880443557991 -0.05 -0.102000045876982) 2298
(-0.5849875764377979 -0.05000000000000002 0.01400000974223269) 10378
(-0.5847922894225377 -0.05 -0.09600004250039298) 2298
(-0.5860778165479811 -0.05000000000000001 -0.09600003961650419) 2298
(-0.5870789763090735 -0.05000000000000001 0.0300000172643003) 10378
(-0.5877966294542035 -0.05 -0.0700000386948374) 2298
(-0.5882270536669326 -0.05 0.05400003210655146) 10378
(-0.5880318778766674 -0.05 0.05400003244308309) 10378
(-0.5894377073756063 -0.05 -0.08000003382388431) 2298
(-0.5905349238749317 -0.05 -0.03600001376105068) 2378
(-0.5913173613820685 -0.05000000000000001 0.01800000977051755) 10378
(-0.5917894978016164 -0.05 0.07400003507944197) 10298
(-0.5915161836316928 -0.05 0.09200003211934088) 10298
(-0.5928385289653826 -0.05 0.08600003081990794) 10298
(-0.5939228054322475 -0.05000000000000002 0.08600002934765068) 10298
(-0.5947685236300317 -0.05 0.01000000585745538) 10378
(-0.5953734294423363 -0.05 -0.02800000829051044) 2378
(-0.5957371545095881 -0.05 0.01200000630489478) 10378
(-0.5958583711588068 -0.05 -0.038000011007176) 2378
(-0.597179993641912 -0.05 0.01200000588245277) 10378
(-0.5982621539097258 -0.05000000000000001 0.1000000250772752) 10298
(-0.5991066691292645 -0.04999999999999999 -0.09600002226093596) 2298
(-0.5997108881716199 -0.05 0.08200002244675447) 10298
(-0.6000744359152342 -0.05 0.01200000497347905) 10378
(-0.6001953354723556 -0.05000000000000002 0.05000001472685833) 10378
(-0.6015143773034831 -0.05000000000000002 0.1000000217310425) 10298
(-0.6025973564861581 -0.05 0.01000000367819842) 10378
(-0.6034399439148911 -0.05000000000000001 -0.03000000561731181) 2378
(-0.6040423972073314 -0.05 0.01800000486994355) 10378
(-0.6044064384706161 -0.05 0.05400001318096596) 10378
(-0.6045270032403584 -0.05 0.0960000183075988) 10298
(-0.60584450453175 -0.05 0.08400001648630229) 10298
(-0.60692667265198 -0.05 -0.1140000172505711) 2298
(-0.6077668886772586 -0.05 0.05400001153534881) 10378
(-0.6083705810859974 -0.05 -0.1020000142324931) 2298
(-0.608732360966459 -0.05 -0.1140000156235216) 2298
(-0.6088536688052263 -0.05 -0.04600000759491688) 2378
(-0.6101700247891515 -0.05000000000000001 -0.08600001194465962) 2298
(-0.6112478455304082 -0.05 -0.09400001127166152) 2298
(-0.6120888262058972 -0.05 -0.003999999485700758) 2379
(-0.6126906893507563 -0.05000000000000001 -0.007999999901258666) 2379
(-0.613053173604772 -0.05 -0.08200001030531329) 2298
(-0.613173312855314 -0.05 -0.1300000153721021) 2299
(-0.6144881804915429 -0.05 -0.02000000128704207) 2379
(-0.6155654651140142 -0.05 0.05600000858347009) 10379
(-0.6164045457372237 -0.05 -0.12800001235546) 2299
(-0.6170060787193887 -0.05 0.03800000470071847) 10379
(-0.6173673275971745 -0.05 -0.1100000082867625) 2299
(-0.6174877374707041 -0.05 0.0500000066349288) 10379
(-0.6188009322501069 -0.05 -0.1080000072571536) 2299
(-0.619875386893431 -0.05000000000000001 0.06000000742819027) 10379
(-0.6207139869610387 -0.05000000000000001 -0.0120000004944183) 2379
(-0.6213135388534323 -0.05 0.01000000134411575) 10379
(-0.6216737207886105 -0.05 -0.02200000133767714) 2379
(-0.6217934368844664 -0.05 0.08200000743838846) 10299
(-0.6231050658660175 -0.05000000000000001 0.09800000576119833) 10299
(-0.6241795276970056 -0.05 0.002000000646357784) 10379
(-0.6250159601381537 -0.05 0.07200000731012896) 10299
(-0.6256152959610188 -0.05 0.004000000740585664) 10379
(-0.6259734562271061 -0.05 0.08200000586119946) 10299
(-0.6260951035266737 -0.05 0.07400000670417556) 10299
(-0.6274034580615548 -0.05 -0.0540000031188033) 2379
(-0.6284746522328748 -0.05000000000000002 -0.09400000418535162) 2299
(-0.6293094203277624 -0.05 0.09400000436520861) 10299
(-0.6299081394789053 -0.05000000000000001 0.006000000699248293) 10379
(-0.6302666841863802 -0.05 -0.02400000110041299) 2379
(-0.6303869728412593 -0.05000000000000001 0.03800000211879463) 10379
(-0.6316935277218557 -0.05 0.06200000340909811) 10379
(-0.6327625935749417 -0.05000000000000002 -0.02000000073712442) 2379
(-0.6335974077244266 -0.05000000000000002 -0.01600000051501206) 2379
(-0.6341940281719913 -0.05 -0.02800000092304557) 2379
(-0.6345527488923688 -0.05 -0.05400000190006107) 2379
(-0.6346713288370265 -0.05 0.09800000337535288) 10299
(-0.6359746460521577 -0.05000000000000001 0.07600000328123446) 10299
(-0.6370436953172514 -0.05 -0.07600000273288122) 2299
(-0.6378753277047469 -0.05 0.01000000041882898) 10379
(-0.6384709714196636 -0.05 -0.1140000027042485) 2299
(-0.6388287512685078 -0.05 -0.04200000111796688) 2379
(-0.6389485026521822 -0.05 0.06600000236854695) 10379
(-0.6402491316744032 -0.05 -0.1260000027318217) 2299
(-0.6413143630351541 -0.05 0.08800000213736897) 10299
(-0.642144080277038 -0.05 -0.003999999877251412) 2379
(-0.6427390861473941 -0.05 -0.04000000081796568) 2379
(-0.6430961656588635 -0.05000000000000001 -0.06000000152544377) 2379
(-0.6432153176471946 -0.05000000000000001 0.09200000181312262) 10299
(-0.6445121594017207 -0.05 -0.09400000143177659) 2300
(-0.6455763151268138 -0.05 0.04600000107123891) 10380
(-0.6464048223651491 -0.05 0.06600000172062455) 10380
(-0.6469973811956402 -0.05 -0.09800000108034163) 2300
(-0.6473526033279409 -0.05 -0.074000001666472) 2300
(-0.6474713731371151 -0.05 0.0300000004497387) 10380
(-0.6487676422222405 -0.04999999999999999 0.05800000125419781) 10380
(-0.6498280216735619 -0.05 -0.001999999903145257) 2380
(-0.6506530010604054 -0.05000000000000001 -0.0440000005527947) 2380
(-0.6512453246926178 -0.05 0.05000000080361877) 10380
(-0.6516008662560573 -0.05 0.0420000005580128) 10380
(-0.6517193499893055 -0.05 0.06400000120563691) 10380
(-0.6530102785018181 -0.05 -0.07000000112322921) 2380
(-0.6540677946912042 -0.05 -0.01800000008133582) 2380
(-0.6548929204421063 -0.05 0.03600000031063419) 10380
(-0.6554827994404123 -0.05 -0.04800000039338825) 2380
(-0.6558367178842708 -0.05 0.09200000066518223) 10300
(-0.6559544512668417 -0.05000000000000001 -0.02800000016137705) 2380
(-0.6572432225278952 -0.05 -0.08000000084541811) 2300
(-0.6582975061251304 -0.04999999999999999 -0.06000000047807188) 2380
(-0.6591190158569173 -0.05 -0.1100000002815919) 2300
(-0.6597081514065131 -0.04999999999999999 0.01600000015850284) 10380
(-0.6600610639004237 -0.05 0.09000000047614852) 10300
(-0.6601790999983876 -0.04999999999999999 -0.1040000002670598) 2300
(-0.6614639124120013 -0.05000000000000002 -0.114000000269252) 2300
(-0.6625145532116659 -0.05 -0.07600000060304211) 2300
(-0.6633337450792023 -0.04999999999999999 0.01600000012571672) 10380
(-0.6639203053409857 -0.05 0.1000000002707944) 10300
(-0.6642725568638647 -0.05 -0.1020000002129564) 2300
(-0.664390691166274 -0.05 0.002000000046817541) 10380
(-0.6656708367615414 -0.05 0.03200000012709477) 10380
(-0.6667188799107376 -0.05 0.06400000019532925) 10380
(-0.6675352182601708 -0.05 -0.01800000004460753) 2380
(-0.6681196071576546 -0.05 -0.1040000001566076) 2300
(-0.6684702132220286 -0.05 0.07000000020636779) 10380
(-0.6689056585764224 -0.04999999999999999 0.02800000007517442) 10380
(-0.6702946155390251 -0.05 -0.08200000011921992) 2300
(-0.6713763529375161 -0.05 0.0740000001586109) 10380
(-0.6721504397292286 -0.04999999999999999 -0.07000000007504087) 2380
(-0.6726157929131295 -0.05 -0.01599999999028895) 2380
(-0.6727703470715152 -0.05 -0.02800000000723838) 2380
(-0.6741551601191231 -0.05 -0.06200000004989265) 2380
(-0.6752340000171398 -0.05 0.06000000006936364) 10380
(-0.6760043351674738 -0.05 -0.03199999999253103) 2380
(-0.6764678245767402 -0.05 -0.03800000000129164) 2380
(-0.6766217182221415 -0.05 0.08400000004946542) 10300
(-0.6780023278404128 -0.05000000000000001 0.02399999997819879) 10381
(-0.6790771698384021 -0.05 0.01799999997228475) 10381
(-0.6798443728279827 -0.05 -0.08999999995968017) 2301
(-0.6803066667661268 -0.05 0.05600000003011373) 10381
(-0.6804604984933105 -0.05000000000000001 0.05400000002409771) 10381
(-0.6818348261849356 -0.05 0.02599999995955134) 10381
(-0.6829030771357758 -0.05 0.08599999999736507) 10301
(-0.6836696258253172 -0.05 0.08799999997832132) 10301
(-0.6841287823568699 -0.05 -0.1139999998203365) 2301
(-0.6842832249862211 -0.05000000000000002 -0.04799999998106951) 2381
(-0.6856518723878104 -0.04999999999999999 -0.01399999997228975) 2381
(-0.6867173768068511 -0.05 -0.07600000000663713) 2381
(-0.6874781850809943 -0.05 0.02399999995805728) 10381
(-0.68793693751535 -0.04999999999999999 -0.1199999997946448) 2301
(-0.6880893859915602 -0.05000000000000001 0.09999999986562444) 10301
(-0.6894513198545592 -0.05000000000000002 -0.1239999998009869) 2301
(-0.6905125826702276 -0.05 2.826782623603291e-12) 2381
(-0.6912701902221872 -0.05 0.09199999990492558) 10301
(-0.6917257389117591 -0.05 -0.05999999994967766) 2381
(-0.6918787189129396 -0.05 0.05599999994027535) 10381
(-0.6932338916165487 -0.05000000000000001 -0.1159999998123342) 2301
(-0.6942904269183773 -0.04999999999999999 0.05799999992752731) 10381
(-0.6950440467410158 -0.05 0.0679999999389236) 10381
(-0.6954968690901081 -0.05 0.08399999993381087) 10301
(-0.6956483856387188 -0.05 0.06999999993844845) 10381
(-0.696997883805341 -0.05 0.06999999992751332) 10381
(-0.6980479659191761 -0.05 0.0519999999187671) 10381
(-0.6987975834042968 -0.05 -0.06599999991241409) 2381
(-0.6992485467037878 -0.05 -0.08199999991750612) 2301
(-0.6993983155680872 -0.05 0.08999999987859517) 10301
(-0.7007395742524312 -0.05 -0.004000000001507618) 2381
(-0.7017838610209035 -0.05000000000000001 -0.1019999998637508) 2301
(-0.7025289273230214 -0.05 0.02799999996387579) 10381
(-0.7029767730748475 -0.05 -4.460010316099261e-12) 2381
(-0.7031272370049372 -0.04999999999999999 -0.05399999992289913) 2381
(-0.7044591088168961 -0.05 0.07599999989165784) 10381
(-0.7054971546482887 -0.05 -0.1219999998707389) 2301
(-0.7062375079203412 -0.05 -0.1159999998753524) 2301
(-0.7066822529135842 -0.05000000000000002 -0.0359999999593527) 2381
(-0.7068314611700834 -0.05000000000000002 0.01399999998073917) 10381
(-0.708155146736907 -0.05 -0.04999999993573054) 2381
(-0.7091848212849503 -0.05 0.001999999992502546) 10381
(-0.7099203441831231 -0.05000000000000001 0.005999999987923129) 10381
(-0.7103621014205588 -0.05 -0.05199999993538983) 2381
(-0.7105091893138737 -0.05 -0.02999999997002692) 2381
(-0.7118239787335447 -0.05 0.09999999988324812) 10302
(-0.7128454603515432 -0.05000000000000002 -0.08999999988370529) 2302
(-0.7135755317209557 -0.05 0.07399999990307138) 10382
(-0.7140141150828907 -0.05 -0.01199999998990552) 2382
(-0.7141606587848304 -0.05 -0.02199999997865961) 2382
(-0.7154629983851883 -0.05 -0.03599999996354652) 2382
(-0.7164768219500918 -0.05 -0.1039999998855465) 2302
(-0.7172006458697304 -0.05 0.06999999991765844) 10382
(-0.7176354842967384 -0.05 -0.007999999994372266) 2382
(-0.7177807690160121 -0.05000000000000001 -0.09599999989163406) 2302
(-0.7190719734378157 -0.04999999999999999 -0.1119999998838912) 2302
(-0.7200760823795537 -0.05 -0.12799999987905) 2302
(-0.7207928639487928 -0.05 0.09799999989737081) 10302
(-0.7212234619509121 -0.05 -0.06999999992948108) 2382
(-0.7213673861940608 -0.05000000000000002 -0.09599999989908746) 2302
(-0.7226458955473141 -0.05000000000000002 -0.09799999990019234) 2302
(-0.7236403424277902 -0.05 0.06599999993502248) 10382
(-0.7243491203240486 -0.05000000000000002 -0.002000000001299071) 2382
(-0.7247749280350504 -0.04999999999999999 -0.1119999998912347) 2302
(-0.7249164522700954 -0.05 -0.06199999994527119) 2382
(-0.7261819032574562 -0.05000000000000001 -0.1119999998936835) 2302
(-0.7271643645872583 -0.05000000000000001 -0.08399999992017564) 2302
(-0.7278655917374095 -0.05000000000000002 -0.08999999991630916) 2302
(-0.7282863503705298 -0.04999999999999999 0.04199999995622297) 10382
(-0.7284266366795604 -0.05 -0.005999999996885012) 2382
(-0.7296766078454293 -0.05 0.06999999993823483) 10382
(-0.7306471843445668 -0.05 0.0539999999494811) 10382
(-0.731338453303911 -0.05 -0.02399999998096955) 2382
(-0.7317534547974411 -0.05000000000000001 0.02599999997272403) 10382
(-0.7318925498181635 -0.05 0.0579999999470043) 10382
(-0.7331249039362591 -0.05 -0.109999999910719) 2302
(-0.7340817824714029 -0.05 -0.04399999996613781) 2382
(-0.734762526155003 -0.05 -0.04599999996501775) 2382
(-0.7351724810255926 -0.05 0.09399999992389452) 10302
(-0.7353083922586867 -0.05 -0.1019999999183559) 2302
(-0.736521834510134 -0.05 0.07999999993570019) 10382
(-0.7374641246512121 -0.05 -0.009999999996551535) 2382
(-0.7381344339511622 -0.05 -0.0939999999301197) 2302
(-0.7385365718954121 -0.05 0.02399999998122061) 10382
(-0.7386710390346329 -0.05 -0.08799999993174434) 2302
(-0.7398629256784389 -0.05000000000000001 0.0439999999658289) 10382
(-0.740788189464276 -0.05 0.09599999993376127) 10302
(-0.7414453835874815 -0.05 0.05399999996032115) 10382
(-0.7418409483814361 -0.05 -0.07999999994466829) 2382
(-0.7419719470978923 -0.05 0.04199999996862749) 10382
(-0.7431416292867512 -0.05 0.08999999993775309) 10302
(-0.7440466218139831 -0.05 -0.02999999998623575) 2382
(-0.7446905823817105 -0.05 -0.009999999998986894) 2382
(-0.7450766492738308 -0.05 0.07399999995207404) 10382
(-0.7452056094801853 -0.05 -0.03799999997951609) 2382
(-0.7463481808439795 -0.05 -0.06599999996037204) 2382
(-0.7472331450699616 -0.05 -0.04599999997775495) 2383
(-0.7478613167576982 -0.05 0.01199999999456947) 10383
(-0.7482378793007771 -0.05 0.08999999995563465) 10303
(-0.7483634078867851 -0.05000000000000001 -0.04799999997568941) 2383
(-0.749476340353904 -0.05 -0.08799999995787998) 2303
(-0.7503364598489787 -0.05 0.04999999997883155) 10383
(-0.7509468535170593 -0.05 -0.007999999999686105) 2383
(-0.7513124946001772 -0.05 0.08999999996844915) 10303
(-0.7514343373958465 -0.05 -0.08799999996371403) 2303
(-0.7525135458777608 -0.05 0.01599999999547955) 10383
(-0.7533462444066047 -0.05000000000000001 -0.04799999998884803) 2383
(-0.7539364099078985 -0.05000000000000002 -0.04399999999182091) 2383
(-0.7542896124359437 -0.04999999999999999 0.02599999999588297) 10383
(-0.7544072554457383 -0.04999999999999999 -0.1059999999791518) 2303
(-0.755447989015553 -0.05000000000000001 0.01599999999766428) 10383
(-0.7562493407247856 -0.04999999999999999 0.02999999999726534) 10383
(-0.7568163459521288 -0.05 -0.1019999999935752) 2303
(-0.7571552918172144 -0.05 -0.04999999999749061) 2383
)


// ************************************************************************* //
