/*--------------------------------*- C++ -*----------------------------------*\
| =========                 |                                                 |
| \\      /  F ield         | OpenFOAM: The Open Source CFD Toolbox           |
|  \\    /   O peration     | Version:  v1912                                 |
|   \\  /    A nd           | Website:  www.openfoam.com                      |
|    \\/     M anipulation  |                                                 |
\*---------------------------------------------------------------------------*/
FoamFile
{
    version     2.0;
    format      ascii;
    class       vectorField;
    location    "0.002/lagrangian/iceFoamCloud";
    object      U;
}
// * * * * * * * * * * * * * * * * * * * * * * * * * * * * * * * * * * * * * //


261
(
(100.7592044387281 0 0.00136226133752302)
(100.7349190758899 0 0.000684741627985593)
(100.7300647113826 0 0.0009994577346670974)
(100.7000696470104 0 -0.0006921090504443926)
(100.6941075076086 0 0.001161597312086765)
(100.669390881393 0 -0.0006898276577274147)
(100.6534307562882 0 -0.001083125258185485)
(100.6554078717667 0 0.0008892632240078841)
(100.6293167185344 0 0.001300243249153149)
(100.6113738417556 0 -0.001311017897195853)
(100.6117249547709 0 -0.001250365023803105)
(100.5819941848929 0 -0.0004799810355642285)
(100.5623803759927 0 0.0001715572098025418)
(100.552856440158 0 -0.001008182087109262)
(100.5529163462677 0 -0.0008804322229151996)
(100.5230713841415 0 -0.00028771880456494)
(100.5033949305557 0 -0.0009697298777675335)
(100.4870597896291 0 0.0001818564643584319)
(100.4937799282282 0 -0.0009001989769520913)
(100.4644758417019 0 -0.0008430437399135698)
(100.4395999662919 0 0.0003469262432927199)
(100.4210875288508 0 -0.000721345884319475)
(100.4121125537361 0 0.0006450131028656191)
(100.4167293341108 0 0.0006498833675820173)
(100.3836067088796 0 -0.0006637174751721779)
(100.3571052267003 0 -0.0002851909717619145)
(100.3375605194196 0 0.0001809503906388595)
(100.3255060755396 0 0.0006958919864526127)
(100.3348406686331 0 0.0006585330625634023)
(100.3010167235856 0 0.00063063352082615)
(100.2734547725896 0 0.0006055294686024573)
(100.249815254411 0 0.00011584581482678)
(100.2351389878569 0 -0.0001634641121312408)
(100.2247979778095 0 0.0001269366672065354)
(100.2225134163781 0 -0.0002385746359723009)
(100.1867853882135 0 0.0001225076696146036)
(100.1601388873766 0 0.0005171840638456108)
(100.1366469927724 0 -0.0004660875362439779)
(100.1191600867577 0 0.0004846129068678822)
(100.1081721142433 0 0.000112369975737413)
(100.1051442317467 0 0.0003204633677638101)
(100.0697317258287 0 0.0004655910104393297)
(100.0370627964631 0 9.009914996835548e-05)
(100.0129993918704 0 -0.0001306185576377108)
(99.99547391212765 0 0.000123101717945037)
(99.98470479160767 0 0.0002798849735119409)
(99.98235915890471 0 0.0004091718442437665)
(99.94275697668556 0 0.0003667539697302489)
(99.91043590056468 0 -0.000392306924624471)
(99.88359763980507 0 0.0002410009750214744)
(99.86574109808278 0 -0.0003405295482463154)
(99.85476208351015 0 -0.0003644410255652396)
(99.84977827077249 0 -0.0001625079144858319)
(99.80870491625117 0 -0.0002812874661851744)
(99.77436403303935 0 -0.0002801078666556055)
(99.74619633588917 0 1.030100289668492e-05)
(99.72647832616153 0 6.632469170406891e-07)
(99.7148532957669 0 -0.0002383075249357152)
(99.71177832491939 0 -0.0003507195815419896)
(99.66672016442952 0 -3.275333545523326e-05)
(99.63009969265923 0 0.0001928211942689876)
(99.60206560148892 0 -0.0002993057457815054)
(99.58035897903419 0 0.0001151994593907069)
(99.56847587239344 0 -0.000224815256443731)
(99.56339648237218 0 0.0001578695739491479)
(99.51755547804389 0 -0.0002004053129555459)
(99.4776266759871 0 0.0001763544090485634)
(99.44682753560086 0 -8.103860614999142e-06)
(99.42458906664966 0 2.935884286787268e-05)
(99.41149395869868 0 -2.680191458270274e-05)
(99.40712879894107 0 0.000179177655285224)
(99.35827501098188 0 0.0001475048310846524)
(99.31566422004698 0 1.524356884430905e-05)
(99.28309248925345 0 0.0001744800511400962)
(99.25953947914464 0 1.756847563695509e-05)
(99.24588065152139 0 0.0001502408001966228)
(99.24059002230135 0 0.0001636383583701469)
(99.18837005313345 0 -8.800023955619079e-05)
(99.14507504282417 0 -0.0001113037426912731)
(99.11057861723694 0 0.0001145124540605924)
(99.08470596165182 0 1.805465563771206e-05)
(99.06998383995376 0 -2.963899268971927e-05)
(99.06497668218154 0 5.552806374642146e-05)
(99.00875060164577 0 9.659370455533499e-05)
(98.96247757472061 0 -2.253997890202697e-05)
(98.92547503280926 0 -1.684542080759636e-05)
(98.8989370648107 0 -2.807734654334801e-05)
(98.88269829648856 0 -5.242597507749413e-05)
(98.87781939867095 0 9.316188629253531e-05)
(98.81793002453351 0 9.376345116753218e-05)
(98.76825284961902 0 -7.980122874761844e-05)
(98.72925233512456 0 1.557516398727292e-05)
(98.70122010447945 0 -8.170058378312523e-05)
(98.68378302804241 0 -3.213585715308365e-05)
(98.67792874717782 0 6.527871299471325e-05)
(98.61512272430114 0 -8.160140570464576e-05)
(98.5621466597386 0 6.559247878876331e-05)
(98.52028471467533 0 2.034479469488137e-06)
(98.49012643554357 0 -2.467835442294829e-05)
(98.47179035135024 0 -4.11617834274583e-05)
(98.46586777241096 0 5.964233510775042e-05)
(98.39850810233061 0 -5.138373992514019e-05)
(98.34208783719613 0 3.244169244157413e-05)
(98.29750739489924 0 4.756560501019895e-05)
(98.26556407039534 0 -4.390588481344003e-05)
(98.24590434164104 0 -4.58016866039951e-05)
(98.23956481324872 0 1.699163453863236e-05)
(98.16749213276438 0 3.778165394573218e-05)
(98.10732575001987 0 2.581902201453132e-06)
(98.06020038913144 0 -1.972856436233997e-05)
(98.02576345514726 0 2.779069651937933e-05)
(98.00496432346701 0 2.105694445319699e-05)
(97.9978770267937 0 3.740021651759797e-05)
(97.92112927816783 0 -3.492169198712347e-05)
(97.85717352630978 0 -2.569827186685065e-06)
(97.80643344587166 0 1.297822665893515e-05)
(97.76967190039674 0 -1.714106956622707e-05)
(97.74753759392792 0 2.798130694182199e-05)
(97.74009994299638 0 -5.582889771015325e-06)
(97.65777754011329 0 -2.973447544516195e-05)
(97.58934370608338 0 -2.044604483121759e-05)
(97.53544290849662 0 -1.615033034555428e-05)
(97.49580830412265 0 5.617117677395955e-06)
(97.47214144971308 0 2.28411474954422e-05)
(97.46427699696416 0 -1.600312825488158e-05)
(97.37637180758671 0 -1.545526541411079e-05)
(97.30273746312484 0 -2.422230036983362e-05)
(97.24474480225194 0 5.09341790966947e-06)
(97.20280597349061 0 1.493846529925982e-05)
(97.1773131459441 0 -1.340370011659859e-05)
(97.16844370840502 0 1.921047032795721e-06)
(97.07449150645795 0 6.715677993479777e-06)
(96.99576363675409 0 1.28715930506127e-05)
(96.9334814269571 0 -2.918652206000227e-06)
(96.88841655603517 0 -1.180642352359878e-05)
(96.86099970452689 0 1.376694717455922e-05)
(96.82682500808971 0 5.007358753557389e-06)
(96.71605314990039 0 -1.144434087719349e-05)
(96.62782839180308 0 1.202243450733341e-05)
(96.5636152544585 0 -8.036176983843355e-06)
(96.52455185570618 0 -1.188992444028269e-06)
(96.51153416850416 0 -2.395336448748991e-06)
(96.39305873038982 0 -5.583509879589628e-06)
(96.29862607727905 0 6.178092582841605e-06)
(96.23011289050939 0 -1.998726130872414e-06)
(96.18838925602883 0 -2.533882050834242e-06)
(96.17450713804782 0 7.328111257099175e-06)
(96.04740590304138 0 1.689540269792906e-06)
(95.94626443184336 0 9.487036823418779e-07)
(95.87289927468983 0 -4.79620978324926e-06)
(95.82800249362323 0 4.560137392753961e-06)
(95.81308428891826 0 4.308230850684915e-06)
(95.67707121883443 0 1.072605849462907e-06)
(95.56889367034432 0 5.013256647887779e-06)
(95.48983554728973 0 4.552193368055551e-06)
(95.44204512661818 0 -2.487732186102504e-06)
(95.42567202131907 0 -2.290136831608907e-06)
(95.27961550134317 0 2.318360301342657e-07)
(95.16319718060404 0 -4.309385913201471e-06)
(95.07865403688267 0 3.200881434506037e-07)
(95.02687817474063 0 -7.062615344481219e-07)
(95.0095781532772 0 1.78195975418858e-06)
(94.85285378353684 0 -5.604976529120058e-07)
(94.72736227201908 0 3.005338870683212e-07)
(94.63612746115774 0 2.236746650395141e-06)
(94.58061763348898 0 -1.820104875750995e-06)
(94.56182680288855 0 1.702024649498629e-06)
(94.39293904900212 0 7.249786343513886e-07)
(94.25766841908428 0 1.272682304165439e-06)
(94.15943045766676 0 2.049792602073122e-06)
(94.0996360626315 0 2.44337990147066e-06)
(94.07939786708259 0 2.090122709959742e-06)
(93.8968416544994 0 1.722453095770246e-06)
(93.75104121425244 0 9.67702277324564e-08)
(93.64485744945875 0 -6.84845832848535e-07)
(93.58011655811629 0 -1.545293839263093e-06)
(93.55864398856625 0 6.670673242454536e-07)
(93.36143086688959 0 4.522293315024241e-08)
(93.20360794367947 0 5.66113944287206e-07)
(93.08879409290996 0 6.230019310736874e-08)
(93.01869918124284 0 7.490022576329499e-08)
(92.99493545352011 0 2.367387728000997e-07)
(92.78161662270612 0 3.616344896112689e-07)
(92.61053427912788 0 4.823638293775629e-07)
(92.4859044359135 0 4.985433489109084e-07)
(92.41017154943783 0 1.720421130764086e-07)
(92.38434018009781 0 -6.522261950414408e-09)
(92.1525884250262 0 3.337897908787602e-07)
(91.96722633664885 0 -1.683752246564301e-08)
(91.83158589565271 0 -5.831035546668087e-08)
(91.74904764346527 0 3.911946855756667e-07)
(91.72140259529479 0 2.038647780068989e-07)
(91.46903335241852 0 -6.43518833056923e-07)
(91.26720753660859 0 7.567090879670518e-07)
(91.11951731799552 0 -5.176732027089741e-07)
(91.02949484648582 0 1.303162296077485e-07)
(90.99917032675143 0 1.956974412055435e-07)
(90.7246655286541 0 2.938959695805207e-07)
(90.50415719808286 0 9.703548929419446e-07)
(90.34288186761158 0 -5.048358019033895e-07)
(90.24453536588892 0 8.863620543903157e-08)
(90.21140851471436 0 9.294660313273658e-07)
(89.91115718484464 0 1.131316626939914e-06)
(89.6701329207779 0 1.195734380631804e-06)
(89.49366662845154 0 -9.118046286077551e-07)
(89.38593827362597 0 5.359310710077488e-07)
(89.34966313502515 0 9.251937136028413e-07)
(89.02058879939132 0 9.681100952777421e-07)
(88.7558941060249 0 -5.10008424988288e-07)
(88.56245365568626 0 1.190428927239773e-08)
(88.44429788671644 0 1.289413078883481e-06)
(88.40479403371347 0 4.901879152868154e-07)
(88.0426675250346 0 1.29261495136419e-06)
(87.75197367489682 0 6.498018582352804e-07)
(87.53851410195364 0 7.888082613007018e-07)
(87.40835294641853 0 -5.232615502821778e-07)
(87.36461935098488 0 5.695792813675936e-08)
(86.96540368821312 0 -5.633030283410273e-07)
(86.64410329055814 0 -5.703053394874138e-07)
(86.40895285371221 0 2.510933567116708e-07)
(86.26527967189134 0 -3.452318272499511e-07)
(86.21649968431792 0 -5.885462522008111e-07)
(85.77522486915348 0 1.218340973807053e-06)
(85.41939298934922 0 4.293862751200123e-07)
(85.15910916604426 0 4.449828263766609e-07)
(84.99898524335369 0 -8.907846776656088e-07)
(84.94563904463037 0 1.076671381947032e-06)
(84.45577149209905 0 -6.521561747455331e-07)
(84.05980550876023 0 7.250600745655693e-08)
(83.76962322667372 0 9.03845332892504e-07)
(83.59217143198438 0 -2.715208900583706e-07)
(83.53203633933211 0 7.755296271992142e-07)
(82.98657255130709 0 -4.538159486286299e-07)
(82.54462778416585 0 -9.301119259852327e-07)
(82.22113615074529 0 -5.35838739384394e-07)
(82.02175443089327 0 7.014811946039585e-07)
(81.95537280498334 0 -4.217878395997254e-07)
(81.34364699471276 0 -8.456257625261264e-07)
(80.84953981817912 0 2.250403526675733e-07)
(80.4858561177726 0 3.346581686581186e-08)
(80.26282540369156 0 -6.940391281437567e-07)
(80.18742582187295 0 3.064130777956638e-07)
(79.50037983354699 0 5.837695099366711e-07)
(78.94248317597219 0 3.631959853912808e-07)
(78.53241980645369 0 -9.669005461481746e-08)
(78.28065399266374 0 -7.392011780459116e-07)
(78.19571254103126 0 3.873703391516164e-07)
(77.41910131766299 0 7.177576794204825e-07)
(76.78840561419041 0 -3.988709919424204e-07)
(76.32358254799456 0 9.261747197647314e-09)
(76.03793969027647 0 -6.491339565380856e-07)
(75.94152496054781 0 6.895496474346914e-07)
(75.05899070362514 0 -1.007944640908671e-07)
(74.34092500664339 0 2.844527572682567e-07)
(73.81093981426393 0 2.335296017348189e-07)
(73.48493036897291 0 -1.305081402738922e-07)
(73.37483467098157 0 5.880291793050618e-07)
(72.36578431433009 0 -8.100771859620082e-08)
(71.54306925773936 0 -1.225426003873536e-07)
(70.93486623022328 0 3.476695761134121e-07)
(70.56033205001488 0 1.604537291375222e-07)
)


// ************************************************************************* //
