/*--------------------------------*- C++ -*----------------------------------*\
| =========                 |                                                 |
| \\      /  F ield         | OpenFOAM: The Open Source CFD Toolbox           |
|  \\    /   O peration     | Version:  v1912                                 |
|   \\  /    A nd           | Website:  www.openfoam.com                      |
|    \\/     M anipulation  |                                                 |
\*---------------------------------------------------------------------------*/
FoamFile
{
    version     2.0;
    format      ascii;
    class       volScalarField;
    location    "0.003";
    object      alphat;
}
// * * * * * * * * * * * * * * * * * * * * * * * * * * * * * * * * * * * * * //

dimensions      [1 -1 -1 0 0 0 0];


internalField   nonuniform List<scalar> 
16000
(
1.215618855178246e-06
2.178703524597783e-05
1.797412622880028e-05
1.986276029450418e-05
1.893851920149417e-05
2.395837520791395e-05
2.86114960265147e-05
3.753130833373138e-05
4.329343591467977e-05
4.508996937575155e-05
4.627869535849585e-05
4.581465163343375e-05
4.604296708370129e-05
4.600482993220703e-05
4.604752156430326e-05
4.617632843792804e-05
4.656059510063191e-05
4.721461853367163e-05
4.82004000321691e-05
4.949486568542753e-05
5.10569351681186e-05
5.284229703175903e-05
5.480355383166207e-05
5.691255789356581e-05
5.9189929562576e-05
6.165822054781722e-05
6.436691898676619e-05
6.739643808384572e-05
7.07817440211758e-05
7.462080600340359e-05
7.895182498344191e-05
8.389328522870414e-05
8.949798578550488e-05
9.589939650149408e-05
0.0001032355089381459
0.0001116561052227229
0.0001213939936367588
0.0001326628112457801
0.0001457812434620516
0.0001610237498199387
0.0001788086074430658
0.0001996122275746577
0.000223974470934694
0.0002524459614822608
0.0002858559683403531
0.0003250225189332164
0.0003709772330055304
0.0004248711557327093
0.0004880098920711691
0.0005617899573918467
0.0006477977930431743
0.0007476340384944936
0.0008626107008190895
0.0009932389000411985
0.001138140722974801
0.001292196648162052
0.00137062402853975
0.00137393720109562
0.001377408048880986
0.001381310718044831
0.001385956049322746
0.001391187441768822
0.001395614789315188
0.001396413986872593
0.001391695424214556
0.001382267420427075
0.0013716199995989
0.001362803630796912
0.001356897445546263
0.001353443084193536
0.001352096063930958
0.001351685304684638
0.001351570038602512
0.001351540955306357
0.001351534470276854
0.001351533204185367
0.001351532997377752
0.001351533126895846
0.00135153518597507
0.001351563246202334
1.153632796039475e-06
2.322345002035757e-05
1.915745357898436e-05
2.243468665412618e-05
1.930034777756057e-05
2.342459101430802e-05
2.656720721141124e-05
3.506754514946226e-05
4.017651239408672e-05
4.307252443760621e-05
4.358115428595988e-05
4.332727433000833e-05
4.336650216024609e-05
4.318244322269523e-05
4.32377579212635e-05
4.332341531680518e-05
4.371281926701589e-05
4.430694307528503e-05
4.520575723046849e-05
4.635675552776263e-05
4.773273489122623e-05
4.931029450091764e-05
5.103726140945346e-05
5.291443531880233e-05
5.494200016718524e-05
5.715700624226648e-05
5.960441816543448e-05
6.234566501662098e-05
6.542438749641939e-05
6.891570180550459e-05
7.286703144177768e-05
7.738465945661225e-05
8.25147470721636e-05
8.840072679942118e-05
9.514989468694051e-05
0.0001029306126123136
0.0001119340161609852
0.0001223902859145264
0.0001346043890420287
0.0001488608468120793
0.0001655566530311134
0.0001851680923229354
0.0002082305097958566
0.000235279678453858
0.0002671873882015739
0.0003048000407252891
0.0003491225581508812
0.0004013939576511645
0.0004629010424093862
0.0005351462860145292
0.0006197558120207028
0.0007184058026562715
0.0008325566516658743
0.000962959195764718
0.00110861135170055
0.00126488571822462
0.001371221639092737
0.001374531405024288
0.001377954778808202
0.001381781872212775
0.001386355289053525
0.001391645092994916
0.001396361822099364
0.001397614700730661
0.001393142614946557
0.0013836356257591
0.00137257508752518
0.001363344941528907
0.001357160425304108
0.001353535187985439
0.00135211447442729
0.00135168793904513
0.001351570052894019
0.001351540787803236
0.001351534399211163
0.001351533183504183
0.001351532985073669
0.001351533174815959
0.00135153602671579
0.001351572410982574
1.028538684474708e-06
2.101842575338892e-05
1.963616867012213e-05
2.50292929294435e-05
1.963302132930021e-05
2.38409463972805e-05
2.571355923661201e-05
3.287637964119176e-05
3.865721863588342e-05
4.060283040853344e-05
4.152907593311552e-05
4.081462008677733e-05
4.08879783979772e-05
4.049960343263256e-05
4.057776649090418e-05
4.056494976014579e-05
4.095458282844932e-05
4.144029218457046e-05
4.224640787049023e-05
4.324279473527479e-05
4.444583891356507e-05
4.58342611694441e-05
4.735687803929448e-05
4.904254112846973e-05
5.088542583194861e-05
5.292341548588044e-05
5.519562445441298e-05
5.774936837656881e-05
6.063164608694089e-05
6.390405564810435e-05
6.76183339326797e-05
7.187216458652527e-05
7.67114965602918e-05
8.228033026030811e-05
8.86774789177152e-05
9.607789130316277e-05
0.0001046610209365602
0.0001146624885572275
0.0001263830590366388
0.0001401198490005054
0.0001562634731507254
0.0001753007663770151
0.0001977841695692185
0.000224258473889187
0.0002556298312656374
0.0002927823819857372
0.0003367385958917773
0.0003888174761367002
0.000450331896124708
0.0005228798160975876
0.0006081256419963254
0.0007078042970646946
0.0008234447663295788
0.0009558736800303357
0.00110417729002643
0.001263755351728482
0.001371980373608025
0.001375285123861003
0.00137867330097042
0.001382434767061318
0.001386909553541823
0.001392157440190057
0.001396968669360931
0.00139842397728452
0.001394068409635581
0.001384488779927717
0.001373137821937752
0.001363636183024131
0.001357285106932373
0.0013535781521854
0.001352119869310643
0.00135168714249043
0.001351569210770101
0.001351540461840588
0.00135153430907289
0.001351533163700773
0.001351533002658426
0.001351533309704177
0.001351537327152342
0.001351582124386599
9.21237810480504e-07
2.039074505930959e-05
1.986732187548935e-05
2.562024825271151e-05
1.947696117262931e-05
2.461968318336658e-05
2.542628174120937e-05
3.16047098314423e-05
3.76808765072482e-05
3.853251270566857e-05
3.966166840998961e-05
3.852972694566182e-05
3.862635681249153e-05
3.801445209131914e-05
3.814844707514982e-05
3.800906868440296e-05
3.84346916680753e-05
3.879312045403771e-05
3.957190469865455e-05
4.038886852698219e-05
4.150922148389576e-05
4.270789370234172e-05
4.410922202979146e-05
4.563325630202774e-05
4.734712699029413e-05
4.923787427214274e-05
5.137283813939089e-05
5.376924481457083e-05
5.648749149073967e-05
5.956846589735895e-05
6.307659533147989e-05
6.709512710751232e-05
7.168174585902676e-05
7.697038033077016e-05
8.306141909622156e-05
9.013118524565994e-05
9.83498430870943e-05
0.0001079581924210811
0.0001192494207028767
0.0001325289997791259
0.0001481778637529748
0.0001666792768104953
0.000188600439284411
0.0002144805270172538
0.0002452420805272499
0.000281791591059164
0.0003251535005283128
0.0003767100114532605
0.0004377527154937203
0.0005099638520721707
0.0005949839322668756
0.0006945962109378093
0.0008103201114863364
0.0009430261288249167
0.00109187696368317
0.001252480241965212
0.001372837909961905
0.001376118119845291
0.001379487203628492
0.001383225223884018
0.001387639728079135
0.001392834479176917
0.001397639815008016
0.001399119491852897
0.001394720646215596
0.001384999325871485
0.001373414537317722
0.001363742578703692
0.001357306439210896
0.00135357414813987
0.00135210992165282
0.00135168214024764
0.001351567441659693
0.001351539955676574
0.001351534189370843
0.00135153313975713
0.001351533013275007
0.00135153347493204
0.001351538778478274
0.001351591959766453
8.248399165099083e-07
2.034405665992596e-05
2.005669332809911e-05
2.534919539251432e-05
1.904426564343666e-05
2.40886332322305e-05
2.488427626911025e-05
3.042130135417283e-05
3.67196284675365e-05
3.642886225090566e-05
3.748700265921142e-05
3.614715401447959e-05
3.602598293869183e-05
3.541828652849167e-05
3.544468497109208e-05
3.53182935014469e-05
3.569928533103588e-05
3.598820777838008e-05
3.673439039146192e-05
3.742358168946017e-05
3.846823704089076e-05
3.952416380143282e-05
4.082322709981667e-05
4.22165462943558e-05
4.382121579750106e-05
4.559013818874278e-05
4.761100411724009e-05
4.98757973600974e-05
5.24585144178289e-05
5.538524965245034e-05
5.872901076062899e-05
6.256343873847867e-05
6.695100473446155e-05
7.201993959569388e-05
7.787099580862981e-05
8.467784392222787e-05
9.260987124453352e-05
0.0001019028252107979
0.0001128478833830487
0.0001257520922119043
0.0001409918019042806
0.000159048373207536
0.0001805008147927368
0.0002058897167654871
0.0002361452361982489
0.0002721895476640327
0.0003150642703692333
0.0003661830275133217
0.0004268621180273367
0.0004988391696684738
0.0005837821838747493
0.00068354141942672
0.0007996679818237949
0.0009330043483100395
0.001082698370540359
0.001244351105003076
0.001373815689998081
0.001377092309305629
0.001380418865381021
0.001384095704569667
0.001388473686957161
0.001393615947498904
0.001398350709756599
0.001399693590507497
0.001395094081071511
0.001365545921913468
0.001373435717316737
0.001363659607201376
0.001357215629876876
0.001353512875786847
0.00135208468575152
0.001351673437958251
0.001351564862868866
0.001351539301987743
0.00135153404883193
0.001351533115362476
0.001351533035693078
0.001351533709503293
0.0013515406428845
0.001351601768219417
7.260376105016297e-07
2.053895565810808e-05
2.013028810781914e-05
2.469088195313886e-05
1.857548401852139e-05
2.313089536953264e-05
2.435150109473005e-05
2.879926233765581e-05
3.54016350215349e-05
3.405368457099631e-05
3.477220548823393e-05
3.353125855575977e-05
3.3162350512831e-05
3.272213985914888e-05
3.264017729683486e-05
3.260661319092642e-05
3.294136053896799e-05
3.323710190095499e-05
3.393325486431866e-05
3.455240512739278e-05
3.554164164981055e-05
3.647853088607205e-05
3.771743593233374e-05
3.89868929471161e-05
4.052119748792415e-05
4.217318110716426e-05
4.410574280212869e-05
4.625501651653659e-05
4.872684380512287e-05
5.152762799810265e-05
5.473751506678549e-05
5.842058464715903e-05
6.2646618687025e-05
6.753686822752854e-05
7.319270971633872e-05
7.978615992846045e-05
8.748374965158269e-05
9.651922632715091e-05
0.0001071800060400428
0.0001197746979495987
0.0001346777774494559
0.0001523685893482913
0.0001734380387032879
0.0001984314085503664
0.0002282876585605436
0.0002639475767201388
0.0003064752400218509
0.0003573159560910267
0.0004178122388848164
0.0004897568930249018
0.0005748546864689785
0.0006750133727652111
0.0007918291676065625
0.0009261962380670817
0.00107718753276353
0.001240170143904723
0.001374943937489631
0.001378192001734535
0.001381503069792854
0.001385130470276636
0.001389433695792935
0.001394477669311933
0.001399048461157636
0.00140013285721065
0.001395220555800848
0.001317741937413755
0.00137311600498583
0.001363364553995938
0.001357013892379256
0.001353402631082573
0.001352046469744889
0.001351661627915842
0.00135156164712127
0.001351538542717335
0.001351533897454923
0.001351533092444605
0.001351533066994875
0.00135153402805081
0.001351542863223842
0.001351612035776192
6.31313861985664e-07
2.080899180355731e-05
1.994672445800997e-05
2.391175215961904e-05
1.809927086335482e-05
2.204204283451115e-05
2.391353245580014e-05
2.715157455634803e-05
3.361448716765256e-05
3.145525489603171e-05
3.186631355882654e-05
3.076112064858965e-05
3.029428462855609e-05
3.001113666875717e-05
2.988970838217321e-05
2.995297932130423e-05
3.024942364535507e-05
3.056959908116913e-05
3.121445795875417e-05
3.179652835126255e-05
3.272319319093188e-05
3.358651289519588e-05
3.476199895408039e-05
3.594836030923419e-05
3.741625896396099e-05
3.898603701866425e-05
4.084384044999958e-05
4.290632473371972e-05
4.528873239305517e-05
4.798908339506239e-05
5.109046647213833e-05
5.465085787757215e-05
5.87416188980467e-05
6.34807854341794e-05
6.897026340507992e-05
7.537873224659087e-05
8.28727439453053e-05
9.168264628401916e-05
0.0001020974278896827
0.000114431900855092
0.0001290550115242387
0.0001464405830844088
0.0001672196113503497
0.0001919185630800593
0.0002214956468677803
0.0002569185850884839
0.0002992717120505364
0.0003500573113086559
0.000410614401246851
0.0004828291916674193
0.0005684031646088612
0.0006693191797963253
0.0007871616283158964
0.000922827697857829
0.001075327358832745
0.001239883554067841
0.00137605419703411
0.001379299327566711
0.001382586025794324
0.001386211262631392
0.001390474580483244
0.001395406873407516
0.001399734767277134
0.001400391958582062
0.001394983927699671
0.00127453272210585
0.001372516598332479
0.001362888469041521
0.001356703551600106
0.001353251290456272
0.001351997979549917
0.001351647542874404
0.001351558013261252
0.001351537724696385
0.001351533742568569
0.001351533067761403
0.001351533117137056
0.001351534454676929
0.001351545512050247
0.001351622363292209
5.524209024577198e-07
2.106225289658552e-05
1.94539912186122e-05
2.305239955354635e-05
1.759120224230658e-05
2.095889773760602e-05
2.36655232428128e-05
2.555876045818628e-05
3.140734680378751e-05
2.884104765182426e-05
2.891423680027427e-05
2.798976664925605e-05
2.752393143327667e-05
2.737074143743057e-05
2.725317040219947e-05
2.739126091762946e-05
2.766835483954504e-05
2.801176232903008e-05
2.861558313417795e-05
2.917892389879022e-05
3.005289417583135e-05
3.086993092865373e-05
3.19940304047765e-05
3.312221815880058e-05
3.453805452576018e-05
3.604206857200143e-05
3.784307335099354e-05
3.982731950273118e-05
4.213509681445789e-05
4.473886634035781e-05
4.773573196826695e-05
5.117154833288822e-05
5.512699052800212e-05
5.971797991612002e-05
6.504572265897106e-05
7.12835855176342e-05
7.859928234038604e-05
8.72192687179623e-05
9.743523023041095e-05
0.0001095685953022977
0.0001239845793981753
0.0001411484565501238
0.0001617354668391038
0.0001862698608212253
0.0002157096890153221
0.0002510672731624198
0.0002934433662617609
0.0003443975235815609
0.0004052889143833572
0.0004780954071673752
0.0005645108637198009
0.0006666164502560541
0.0007859589779606959
0.0009234299094833023
0.001077899781026899
0.001244340324739401
0.001377345418620494
0.0013805387822151
0.001383774945077776
0.001387368294351151
0.001391585252953988
0.001396399003759484
0.001400386528213894
0.001400451947625412
0.001334363479212837
0.001237286583367934
0.001371640358123212
0.001362244649219603
0.00135631257471948
0.001353069619484994
0.001351942547452954
0.001351632113899232
0.001351554193805792
0.00135153690211483
0.001351533587644835
0.00135153305073977
0.001351533195357312
0.001351535027868973
0.00135154864382626
0.001351632952523815
4.866756719543393e-07
2.122705072428869e-05
1.865199992121467e-05
2.202125418103311e-05
1.707174671039103e-05
1.993318152568882e-05
2.358586868583562e-05
2.403022238707229e-05
2.882134202182918e-05
2.625315282769416e-05
2.603520974207217e-05
2.534243520096619e-05
2.490386443051124e-05
2.485250249910037e-05
2.474229234004252e-05
2.495207714775687e-05
2.519847244597426e-05
2.558043826564711e-05
2.613514514659407e-05
2.669834225317558e-05
2.752684602105705e-05
2.830733633755189e-05
2.940044472205953e-05
3.04620827882242e-05
3.185198578395595e-05
3.326824065796097e-05
3.503232429939706e-05
3.691211134910568e-05
3.915369588334542e-05
4.164838348791711e-05
4.455509154189964e-05
4.788189424567921e-05
5.173244594638379e-05
5.621441378049662e-05
6.142959550579998e-05
6.755090902152822e-05
7.474643416122827e-05
8.324007173146754e-05
9.332219132451894e-05
0.0001053170810403833
0.0001196033096398405
0.0001366419106019641
0.0001571303168079554
0.0001816304358524559
0.0002110728995856218
0.0002465428400093969
0.0002891495791030046
0.0003404928331462625
0.0004020034826059587
0.0004757070530830854
0.0005633525077470174
0.0006670992055335943
0.0007884576667697698
0.0009283020017316803
0.001085316734181914
0.001254005447208997
0.001378686405753529
0.001381796164653583
0.00138502966850218
0.001388588551172148
0.001392767840728227
0.001397423978699093
0.001400961599216467
0.001400292742618893
0.001247592433430267
0.001207671821902224
0.001370507987169363
0.001361444719710585
0.001355862511533188
0.001352869760785618
0.001351883707956765
0.001351616281404126
0.001351550411018462
0.001351536119501642
0.001351533446509993
0.001351533046602046
0.001351533315531878
0.001351535779773158
0.001351552306472245
0.001351643704971057
4.305509030087475e-07
2.128033954334484e-05
1.766952839035627e-05
2.076185467089592e-05
1.650133511298719e-05
1.884094577410751e-05
2.348182170061211e-05
2.251375515102769e-05
2.598268984681841e-05
2.375061528376666e-05
2.331926307564584e-05
2.283447686673741e-05
2.241082560355873e-05
2.246132453566598e-05
2.232158966720576e-05
2.262748770605127e-05
2.279180081941186e-05
2.326053517559273e-05
2.372060292929905e-05
2.432157407221965e-05
2.502628907775524e-05
2.577769488857557e-05
2.683112187971904e-05
2.782635728929734e-05
2.918333048789639e-05
3.05155514221384e-05
3.22398892651624e-05
3.402773544746269e-05
3.621699174806083e-05
3.861923907523868e-05
4.145424889438385e-05
4.468902098703832e-05
4.84455643509706e-05
5.282655942406631e-05
5.792641525987859e-05
6.392816085235177e-05
7.098760503839478e-05
7.983877139991971e-05
8.983230921805057e-05
0.0001017429147432239
0.0001159672384959128
0.0001329686738145786
0.0001534598526836019
0.0001780489584815258
0.000207638356244466
0.00024340604816928
0.000286468490656026
0.0003384550358656407
0.0004008977757935422
0.0004758268243691669
0.0005651194191310315
0.0006709820621342462
0.0007949097427147222
0.000937695046890287
0.001097730604800313
0.001268763611081835
0.001380068876224331
0.001383122311416043
0.001386315421602642
0.001389851143136414
0.001394002820897227
0.001398452679581356
0.001401413930438235
0.00139984303202138
0.001169130042032823
0.001187610794289447
0.001369151452710139
0.001360548597438835
0.001355345296725456
0.001352663967536264
0.001351824847161727
0.001351600901555297
0.001351546851271765
0.001351535409821865
0.001351533327640182
0.001351533057595432
0.001351533487101296
0.001351536749552074
0.00135155656849415
0.00135165461620558
3.845605171907958e-07
2.12311442694281e-05
1.656409606134839e-05
1.928507209648807e-05
1.593347757077286e-05
1.766236996130438e-05
2.313755066004459e-05
2.09011522392691e-05
2.306997826449836e-05
2.131705836473871e-05
2.074787762901586e-05
2.044058576727656e-05
1.999207362759201e-05
2.017146045671208e-05
1.995456143405757e-05
2.038828096624009e-05
2.04038976520651e-05
2.094684918738565e-05
2.132324858100741e-05
2.198266714145658e-05
2.266441778556136e-05
2.34678643483815e-05
2.445788189380881e-05
2.546961947401953e-05
2.678588584673537e-05
2.809780387219516e-05
2.980186696422882e-05
3.153914983115544e-05
3.371414962991209e-05
3.605397729168107e-05
3.885815148980339e-05
4.202815191455302e-05
4.573143342120913e-05
5.005044887871195e-05
5.508396814842769e-05
6.102789861373944e-05
6.802082517864802e-05
7.633663646044935e-05
8.620833189193048e-05
9.800222799072667e-05
0.0001121344176784225
0.0001300795090573586
0.0001506946744840829
0.0001755087847281477
0.0002054035959773212
0.0002416516048866203
0.0002854198345811591
0.0003383348689156038
0.0004020487083263249
0.0004785591289441355
0.0005699419855179881
0.0006783954995896277
0.0008054415077215299
0.0009516566365283313
0.001114963764512814
0.001287942018134462
0.001381469763604714
0.001384489845842376
0.00138765095697873
0.00139115904076579
0.001395276468178697
0.001399448034461627
0.001401668048643895
0.001399043218596445
0.001101839423402114
0.001179297242595695
0.001367631986389105
0.001359561700916544
0.001354814066144027
0.001352463314015349
0.001351768883065726
0.001351586669539295
0.001351543655984176
0.001351534795940294
0.00135153322836355
0.00135153308143141
0.001351533724491929
0.001351537991456161
0.001351561471054953
0.001351665637240934
3.458801968973776e-07
2.109437365982569e-05
1.543714807962465e-05
1.767395456735535e-05
1.539718148801929e-05
1.630527051657685e-05
2.228458102880738e-05
1.905590716738098e-05
2.020003633301356e-05
1.893094153278436e-05
1.826227063455395e-05
1.812247150641332e-05
1.768225980935674e-05
1.787320596887187e-05
1.76982266027096e-05
1.813303368725812e-05
1.824550916642896e-05
1.882482962316747e-05
1.919314438981757e-05
1.991638838013743e-05
2.053393984831295e-05
2.140905709578149e-05
2.232377220236577e-05
2.338071996551975e-05
2.464189187722624e-05
2.595865533177597e-05
2.763268696265833e-05
2.933422004597715e-05
3.149485429014821e-05
3.377841029276442e-05
3.65648628073871e-05
3.967698627864781e-05
4.335389642000542e-05
4.762926942947796e-05
5.26321722534172e-05
5.855618821848802e-05
6.552227177338513e-05
7.382217162381665e-05
8.369832355535514e-05
9.552082815000053e-05
0.0001097238156037981
0.0001268405493445007
0.0001475387125841516
0.0001725368727194008
0.0002044187979966822
0.0002413150223776571
0.000286035814752077
0.000340168821603046
0.0004055174940222727
0.0004840133165369844
0.0005779230060937663
0.0006894011347781429
0.0008200314851498724
0.0009699900056284088
0.001136473633274474
0.001310443954016981
0.001382899704551833
0.001385868592038554
0.001388993494330997
0.001392519269294318
0.001396540936079311
0.001400329751597552
0.001401650512435212
0.001302936736669184
0.0010477086266793
0.001185117576647156
0.001365973152802662
0.001358546883769508
0.001354257783808697
0.001352276933358234
0.001351718056500968
0.001351574083571611
0.001351540913221738
0.001351534291345543
0.001351533153276865
0.001351533132910311
0.001351534062219555
0.001351539577597408
0.001351567077280438
0.001351676711295674
3.133854223484968e-07
2.087340811898542e-05
1.421314996386304e-05
1.591323529749455e-05
1.489438642816173e-05
1.48497582640058e-05
2.069192087262457e-05
1.703613829495274e-05
1.747377328721902e-05
1.659148274681829e-05
1.595735197818063e-05
1.584344494129298e-05
1.551872853001341e-05
1.574087259325071e-05
1.571341131233886e-05
1.612861763521537e-05
1.633031930354649e-05
1.690363061352368e-05
1.729241718134592e-05
1.803151367257924e-05
1.862529713418556e-05
1.953436240390838e-05
2.039810472683494e-05
2.149486087235949e-05
2.26970014586398e-05
2.404069196703965e-05
2.566974895333015e-05
2.736741897250645e-05
2.951345260114444e-05
3.1766738663201e-05
3.455582272914551e-05
3.76324311076766e-05
4.131464298919875e-05
4.556822364543735e-05
5.057254770270355e-05
5.650487572885756e-05
6.349171381203656e-05
7.185327686109571e-05
8.178276414902929e-05
9.370777934750509e-05
0.0001080541763345053
0.0001253710192408612
0.0001464094691886768
0.0001719049872844645
0.0002027435780239647
0.0002401953513344407
0.0002883229523804022
0.0003439372043662246
0.0004112858647534407
0.0004922234895018881
0.0005890731415476022
0.0007039624390440425
0.0008385057128481409
0.0009922850238913298
0.001161442056320117
0.001334881065117715
0.001384314316516315
0.001387249130801669
0.001390362532929013
0.001393903135826156
0.001397788587133928
0.001401043117188115
0.001401286430015164
0.001154852576012805
0.001008277811437588
0.001208011792417056
0.001364254814208737
0.001357522233164918
0.001353702331823227
0.001352111326826275
0.001351673828261525
0.001351563424823141
0.001351538666083618
0.001351533885200617
0.001351533106003714
0.001351533220614124
0.001351534532813382
0.001351541571045293
0.001351573429926329
0.001351687768179862
2.865232564642516e-07
2.044609631414601e-05
1.303099828444488e-05
1.407132323903946e-05
1.455290954170259e-05
1.369105355120407e-05
1.842419440357549e-05
1.509833099307286e-05
1.499043273270685e-05
1.438250026313886e-05
1.38103071481355e-05
1.379824130414031e-05
1.361786222164293e-05
1.385773004387036e-05
1.391911412962405e-05
1.4331722440724e-05
1.458825639407757e-05
1.514385507340199e-05
1.558165413316068e-05
1.630040564978246e-05
1.692168995612274e-05
1.783340296140524e-05
1.868227200386864e-05
1.981528991560552e-05
2.097110031483158e-05
2.236591222790303e-05
2.388847068090885e-05
2.56093773701952e-05
2.771391916234153e-05
2.995453443893705e-05
3.272841699202162e-05
3.576536375879211e-05
3.943848283001461e-05
4.364880955685626e-05
4.863789723691768e-05
5.454332768354903e-05
6.151072466739552e-05
6.987305591343446e-05
7.984644497846175e-05
9.184535831419759e-05
0.0001063213675806782
0.0001247590551031952
0.0001462083017202328
0.0001723344997307287
0.0002039764213823534
0.0002424948325161049
0.0002894270923720235
0.0003463251551599424
0.0004193050253606268
0.0005031091964128314
0.0006032785942206299
0.0007219111598963375
0.0008605136044830644
0.001017963064089032
0.001188894288834472
0.001359744383507414
0.001385730306859344
0.001388642552677416
0.00139175174136548
0.001395267916040807
0.001398933319026789
0.001401497512601872
0.001400494719352647
0.001041055823806766
0.0009846818238590761
0.001251501465809046
0.001362526534260846
0.001356524194626612
0.001353202898574851
0.001351969957138052
0.001351636885031954
0.001351554769754952
0.001351536908370249
0.001351533584976864
0.001351533087101747
0.001351533353942602
0.001351535174183399
0.001351544042853009
0.001351580548929886
0.001351698727221784
2.637146994751405e-07
1.985830619638662e-05
1.198479175127767e-05
1.240922801866497e-05
1.430383428565244e-05
1.24339139329183e-05
1.57793147063931e-05
1.324094827945957e-05
1.276326450464263e-05
1.233026086551147e-05
1.191903051548011e-05
1.199127727411594e-05
1.18957474586766e-05
1.21729651472545e-05
1.229794261895811e-05
1.271644666392643e-05
1.302622509181176e-05
1.357835791732216e-05
1.405944169817035e-05
1.47664151166506e-05
1.542677431244344e-05
1.633045612744011e-05
1.71703228309881e-05
1.830853896160572e-05
1.944010557637826e-05
2.086893936326494e-05
2.238882711905357e-05
2.416694525584292e-05
2.623421660648563e-05
2.851060719489433e-05
3.12837004239597e-05
3.433056492041959e-05
3.803594007030291e-05
4.22590883388549e-05
4.730094755909966e-05
5.325800583441676e-05
6.031204412968293e-05
6.879831096673468e-05
7.891723736508095e-05
9.115647239831921e-05
0.0001059208079460084
0.0001238617507622153
0.0001456779121194829
0.0001723369713426112
0.0002064774586475692
0.0002462502147830635
0.0002947415109839046
0.0003535887379228927
0.0004252963375992708
0.0005116734210547652
0.0006203549631654805
0.0007429543250565902
0.0008855311712825221
0.001046242202446819
0.001217727392273861
0.001383565487606681
0.001387139619570688
0.00139001239206995
0.001393120467225761
0.001396576979354728
0.001399912689242791
0.001401591008156461
0.001315902677008579
0.0009568650614719828
0.0009781909605914591
0.001320119074093549
0.001360843417354729
0.001355587504966297
0.001352784443962773
0.001351853818611051
0.001351607228913868
0.001351548027955757
0.001351535589447817
0.001351533358752959
0.001351533098745869
0.001351533553357003
0.001351536037808077
0.001351547077759328
0.001351588456633099
0.001351709485101884
2.443888045360346e-07
1.927025304426678e-05
1.100187574730162e-05
1.087500964010392e-05
1.394723611905052e-05
1.122118305426267e-05
1.308409997827877e-05
1.127910230829915e-05
1.077040173672132e-05
1.051148715058257e-05
1.024527079834497e-05
1.038501728960066e-05
1.03765366765776e-05
1.068032895933593e-05
1.08733648464998e-05
1.129597410396135e-05
1.16543550787743e-05
1.220826225638259e-05
1.272310092278543e-05
1.341407302917327e-05
1.410212931213877e-05
1.499215288071826e-05
1.58881473324834e-05
1.702415946711924e-05
1.817544401796646e-05
1.96295566984762e-05
2.113607648070492e-05
2.297535015375651e-05
2.500813154260694e-05
2.735307939018535e-05
3.011919722682401e-05
3.321619255021714e-05
3.69608051596643e-05
4.123062375238477e-05
4.634980224302506e-05
5.238800494154216e-05
5.955500768407775e-05
6.820026695436523e-05
7.853082464472288e-05
9.107296544246339e-05
0.0001062237870161569
0.0001246795501520666
0.0001471082734711171
0.0001745873781822167
0.0002081555469753744
0.0002491015103131731
0.0003017487707657035
0.0003628060963066957
0.000437092702736924
0.0005268622413326438
0.0006339225462176275
0.0007667234306929934
0.0009130504006489801
0.001076187971847474
0.001246695880947765
0.001385735728249642
0.001388505891640919
0.001391358652028757
0.001394467202048973
0.001397806408561048
0.001400673439367381
0.001401244774604981
0.001109794850315923
0.0008984509859909601
0.0009903498723904153
0.001366962636890313
0.001359253374274813
0.00135472795403152
0.001352446450611768
0.00135176190381681
0.001351584340806961
0.001351542986061071
0.001351534652050337
0.00135153321001508
0.001351533143589015
0.001351533845487098
0.001351537184008285
0.001351550752770294
0.001351597127302762
0.001351719936551235
2.280424362900925e-07
1.72199673256009e-05
1.012270705539804e-05
9.498843531500034e-06
1.324927090681988e-05
1.000177133950893e-05
1.070368611861186e-05
9.444167346576695e-06
9.050810275562849e-06
8.943371696330438e-06
8.801685592503924e-06
8.98601991322567e-06
9.064439924191495e-06
9.377717011540083e-06
9.627068976654523e-06
1.005623920601646e-05
1.045433529553694e-05
1.09987976746352e-05
1.154655714107234e-05
1.225226959601494e-05
1.297303474226344e-05
1.387039824092188e-05
1.479995861659285e-05
1.594013756766165e-05
1.713188238753309e-05
1.859611173840357e-05
2.012269724272135e-05
2.201270834947255e-05
2.403123741276552e-05
2.639941366238157e-05
2.913174505574397e-05
3.22911931054286e-05
3.603458981865355e-05
4.034958693854505e-05
4.551482433885825e-05
5.16196797752761e-05
5.888130450816772e-05
6.765713639494561e-05
7.813847336945678e-05
9.154500883070355e-05
0.0001071185257691374
0.0001262359241756505
0.0001493968248935733
0.0001778552052307448
0.0002126317105399721
0.0002550782306311984
0.0003071897365411639
0.0003737725975158151
0.000450952217214205
0.0005441208480974741
0.0006551079803529287
0.0007849726169137801
0.0009423407467103606
0.001106642307463815
0.001274314357542651
0.001387159358109027
0.001389845182289415
0.001392676925668336
0.001395772909397461
0.001398903653185794
0.001401073825646447
0.001400396450048938
0.000966799563400971
0.0008629299124564727
0.001023239374289163
0.001364559688492394
0.001357795101616125
0.001353955771943842
0.001352183150863685
0.001351691750622872
0.00135156735844532