/*--------------------------------*- C++ -*----------------------------------*\
| =========                 |                                                 |
| \\      /  F ield         | OpenFOAM: The Open Source CFD Toolbox           |
|  \\    /   O peration     | Version:  v1912                                 |
|   \\  /    A nd           | Website:  www.openfoam.com                      |
|    \\/     M anipulation  |                                                 |
\*---------------------------------------------------------------------------*/
FoamFile
{
    version     2.0;
    format      ascii;
    class       volScalarField;
    location    "0.003";
    object      k;
}
// * * * * * * * * * * * * * * * * * * * * * * * * * * * * * * * * * * * * * //

dimensions      [0 2 -2 0 0 0 0];


internalField   nonuniform List<scalar> 
16000
(
0.1515732817872456
0.01511459638375707
0.01255861784206387
0.0123590459696861
0.0116077857182256
0.01135943177695084
0.01102933013260585
0.01094450704845071
0.01080799416897506
0.01076004400810435
0.01069557011144792
0.01064228536887825
0.01059870292928966
0.0105551222523784
0.01051888419057823
0.01048492101324786
0.010457024031669
0.01043119290808035
0.01040852794934532
0.010387991629719
0.01036904592888678
0.01035240948679231
0.01033669287867977
0.01032284282823581
0.01031003533155643
0.01029908728255207
0.01028880218616453
0.01027986975328817
0.01027131167650769
0.01026392584369947
0.0102568797456336
0.01025045590381237
0.01024451585050737
0.01023873493914502
0.01023370764752011
0.01022860641527762
0.01022423739670373
0.01022044845322894
0.01021689464388508
0.01021285265047077
0.01020939164760985
0.01020648998011259
0.01020356499322161
0.01020061247351629
0.01019776749841895
0.01019508448975571
0.01019247365187649
0.01018965065914145
0.0101869374906187
0.01018468082945645
0.01018239133071182
0.01017996704514805
0.01017798817050633
0.0101759869573423
0.01017441190919743
0.01017303464277956
0.01017203744566891
0.01017164483569955
0.01017269100259317
0.01017593079706238
0.01018259023225001
0.01019138856558829
0.01019745973615756
0.01019070616575942
0.01016483976038049
0.01012280774253107
0.01007629535902909
0.01003573059678295
0.01000508880803484
0.00998337186279355
0.009975575263814516
0.009973672520981318
0.009973209847649257
0.009973100339742793
0.009973076408190939
0.009973071807324358
0.009973071888722413
0.009973085904704219
0.009973276966098059
0.009975853631069424
0.1455493129404196
0.01617752468211529
0.01301507631201142
0.01291405694491276
0.01185056914127416
0.01162742747983238
0.01117388465028117
0.01109436546019454
0.01090335090030199
0.01085485918748863
0.01077462716425671
0.01071140772828162
0.01066061587028872
0.0106066195923652
0.01056311260652899
0.01052117902988064
0.0104874588729975
0.01045660167457723
0.01042979654628612
0.01040602109317688
0.01038427070503819
0.01036534164263471
0.01034791599295924
0.01033312293348764
0.01031943682454088
0.01030776786290515
0.01029702316835209
0.0102876155549729
0.01027892470607052
0.0102710905395062
0.01026385445445096
0.01025729425081352
0.010251052937103
0.01024533183515526
0.01024014329442497
0.01023513401176279
0.01023071081971492
0.01022672591915008
0.01022326939918157
0.01021925880370564
0.01021597448742251
0.01021306760040643
0.01020992761204276
0.01020681700641791
0.01020394844152746
0.01020116602591003
0.01019851533371933
0.01019580021996529
0.01019304565336156
0.01019057423988858
0.01018826706181343
0.0101858635560233
0.01018382952606089
0.01018168296011788
0.01017997774852235
0.01017856536770151
0.01017745357949007
0.01017682816591379
0.01017762765385795
0.01018049868800019
0.01018674797836112
0.01019576583485287
0.01020298992566107
0.01019788914412705
0.01017242279304788
0.01012950439328436
0.01008101675732402
0.0100385842450845
0.01000672182309205
0.009983971060011296
0.00997566247767873
0.00997368176609764
0.009973209749957164
0.009973099655478278
0.009973076133297931
0.009973071785747266
0.009973072471236336
0.009973092408358914
0.009973352403522978
0.009976702700456487
0.1311321908640875
0.01728407339314307
0.01337328502899562
0.01348335763570867
0.01198489170350632
0.01187322670917902
0.0112741197710971
0.01122408986041555
0.01097802228845732
0.0109322624083462
0.01083717715978689
0.01076365322746266
0.01070634273652416
0.01063927744636087
0.01059075571430001
0.01054057007288066
0.01050455169061222
0.01046846365871351
0.01044061248364808
0.0104138675757857
0.01039118475621698
0.01037108283683165
0.01035283824230615
0.01033755557987371
0.01032357100864327
0.01031160292727443
0.01030072635391761
0.0102911308763725
0.0102824166813565
0.01027441237275043
0.01026709108247498
0.01026044860575593
0.01025413040371428
0.01024839489993119
0.01024313591346177
0.0102382150798258
0.01023393413062037
0.01022971117459773
0.01022631599058999
0.01022270575437377
0.01021925704652243
0.01021619574874394
0.01021320555288887
0.01021007104170856
0.01020709572803288
0.01020420521928812
0.01020143562866892
0.01019872601485253
0.01019599911097007
0.01019341719246117
0.01019103905047898
0.01018862989818419
0.01018652858117238
0.01018432774575596
0.01018256944876546
0.01018113915880962
0.01017998764986893
0.01017927436228675
0.01017995188686806
0.0101825909121897
0.01018839035861819
0.01019720947395278
0.01020473923508126
0.01020045494815446
0.0101754714714886
0.01013236954045067
0.01008300090969202
0.01003970897096883
0.0100073436921603
0.009984267544009755
0.009975699379928205
0.009973681042319098
0.009973206830061606
0.009973098536716426
0.009973075850013552
0.009973071822289594
0.009973073612921171
0.009973104332342308
0.009973472207662405
0.009977596459201949
0.1185492844895329
0.01845304877409946
0.01363885315436878
0.01400232525071071
0.01207493760322181
0.01211035768873839
0.01133160457065496
0.01134242350963252
0.01104245419247205
0.01099485160129467
0.01087948450071689
0.01079413956317165
0.01072726119596494
0.01065286566427906
0.01060184725385466
0.01054813758349169
0.01051162359117839
0.01047317765722782
0.01044571973192301
0.01041753364475285
0.010396129718676
0.010375342061037
0.01035806421857274
0.01034237442073823
0.01032867643627227
0.01031662605323005
0.01030607369912554
0.01029645413887384
0.01028798842481551
0.01027995587218553
0.01027277576846694
0.0102661862321431
0.01025995508788687
0.01025424302378132
0.01024890629354437
0.01024426544941838
0.01023964515062013
0.01023560415265756
0.01023222731881227
0.01022872785401432
0.01022527260043205
0.01022210480694611
0.01021896833883578
0.01021587345586905
0.01021282992951685
0.01020975609015182
0.01020680290081678
0.01020407510343031
0.01020149418728586
0.01019890848994222
0.01019624484364301
0.01019380943548012
0.01019148204981419
0.01018931256123936
0.01018742365916835
0.01018588576651224
0.01018463542460884
0.01018381314992124
0.01018425029792775
0.01018667638409078
0.01019200577014825
0.01020045677406615
0.01020765956372361
0.01020313530921312
0.01017787906555656
0.0101339716022358
0.01008381398350189
0.0100400840771078
0.01000747526964413
0.009984311794212695
0.009975661151083809
0.009973661243569654
0.009973200231612137
0.009973096678430616
0.009973075429184955
0.009973071836683977
0.009973074997464325
0.009973119503733141
0.00997360863060308
0.00997850842789213
0.107012350341494
0.01965694359532958
0.01385340834555977
0.0142837594680622
0.01214264872565552
0.01224183616836374
0.01136658312215414
0.01141197321955676
0.0110782003713077
0.01102594104902681
0.01090052742193758
0.01080885806635869
0.01073547485094074
0.01065743649971455
0.01060501820781908
0.01055039965607559
0.0105134647705678
0.01047430667768478
0.0104469191852727
0.01041826829108454
0.01039721495689801
0.01037628764629083
0.01035998531691212
0.01034429434510811
0.0103308880594836
0.01031878402047331
0.01030843704069082
0.01029882911672587
0.01029046160806746
0.01028248599837692
0.01027537671813259
0.01026888694634469
0.01026269352583757
0.01025724376933981
0.01025196740649442
0.01024734204245388
0.01024302599899854
0.01023889941904825
0.01023545747357765
0.01023205073127184
0.0102285235022809
0.01022520582866704
0.01022201970988124
0.01021885825743059
0.0102158603605233
0.0102128969156344
0.010209849379385
0.0102068017856227
0.01020418551923255
0.01020164180764698
0.01019886751051058
0.01019633291352269
0.01019402642142681
0.01019193435095911
0.010190044989121
0.01018841494574155
0.01018720212769667
0.0101865665388829
0.01018691450867402
0.01018915932404628
0.01019473515963923
0.01020305973512805
0.01021017156045583
0.01020515579695474
0.0101789887885901
0.01013459733738802
0.01008391462240913
0.01003967657866011
0.01000700077707525
0.009983960040096265
0.009975542248220887
0.009973626172915463
0.009973190584244455
0.009973094287429362
0.009973074952748949
0.00997307196626668
0.009973077372924034
0.009973141305025241
0.009973778693449927
0.009979412557553776
0.09484514298292007
0.02083760626012064
0.01405338614625163
0.01445461691549496
0.01219579636471541
0.01232033929514482
0.01139210438545369
0.01144951752018866
0.01110170155552548
0.01104261241731138
0.01091156939644074
0.01081602981572583
0.01073745318819278
0.01065847351757722
0.01060444759728457
0.01055009698588421
0.01051268812454733
0.01047344140176747
0.01044645858891429
0.01041763345648922
0.01039727123475085
0.01037632641442919
0.01036071978505434
0.01034515713141399
0.01033287619673466
0.01032097993373437
0.01031138085674662
0.01030214127748092
0.01029397777178759
0.01028648568868835
0.01027965960554381
0.01027332490979981
0.01026744371326093
0.01026212202616222
0.01025698183704966
0.01025261606935045
0.01024822961127484
0.01024416532527417
0.01024063533761795
0.0102373139931018
0.01023399242731398
0.01023063387201354
0.01022740393335554
0.01022415952844784
0.0102209718236219
0.01021788504697291
0.01021499949493493
0.0102121033505892
0.01020922742364463
0.0102065916350154
0.01020383412517879
0.01020112188285784
0.010198887951923
0.01019667335005215
0.01019459886154947
0.01019286962084528
0.01019150436202372
0.01019070319875841
0.01019101055250749
0.0101930026100469
0.01019815484207057
0.01020596690256092
0.01021235932457019
0.01020638386855123
0.01017934142865631
0.01013349329808817
0.01008218106046487
0.01003814921858989
0.01000589292234061
0.009983292436634575
0.009975358847301403
0.009973578227031692
0.009973178513468805
0.009973091503953001
0.009973074446033575
0.009973072221122049
0.009973080801803468
0.009973170636861237
0.009973984052567077
0.009980362381697038
0.08292971763509976
0.02194393777876057
0.01422708531788056
0.0145654919113606
0.01222654842608303
0.01236727629584501
0.01141091124755585
0.01146879822321171
0.01111702979675578
0.01105039166986897
0.01091655476657912
0.0108164969975899
0.01072730078526109
0.01065327423832477
0.01059631838468368
0.01054479359302098
0.01050716771736819
0.01046911653872395
0.01044315897516984
0.01041480350976727
0.01039589818172787
0.01037516477990831
0.01036070783610788
0.01034523993529335
0.01033378307743596
0.01032196370541801
0.01031271362317926
0.01030367381660746
0.01029555836116426
0.01028832145293073
0.0102816374100039
0.01027539398406735
0.01026964820397107
0.01026445446361426
0.01025943629273671
0.01025512567682318
0.01025096641993528
0.01024685436304913
0.01024325614658071
0.01023996162605525
0.01023650077927995
0.01023311764013216
0.01022991061654869
0.0102266584094658
0.01022340427977148
0.01022024673538126
0.01021734748161767
0.01021464539385686
0.01021190005143766
0.01020895677256885
0.01020629439290398
0.01020380582923417
0.01020128518668978
0.01019920522025371
0.01019732214604888
0.01019558890895245
0.01019428679621713
0.01019361067758555
0.01019389688811352
0.01019603562100219
0.0102012526365116
0.0102087292859144
0.0102142136882832
0.01020664864174877
0.01017785119885795
0.01013087180933353
0.01007935354312318
0.01003580537371078
0.01000409870324181
0.009982364774917199
0.009975125634091931
0.009973521097078013
0.009973164877692196
0.009973088519074894
0.009973073949775259
0.009973072713657015
0.009973085986096529
0.00997321021911316
0.009974228219277176
0.009981316668225819
0.07286482892445439
0.02293149400462034
0.01434091994556115
0.01464678205128965
0.0122332460433318
0.01239540104444164
0.01142067623474259
0.01147709659730479
0.01112667351847475
0.01104701909648766
0.01090406771489067
0.01079561615687635
0.01070631324082978
0.01064012081556002
0.01058160717595841
0.01053534778217434
0.01049761197949923
0.01046265009989251
0.01043748784958961
0.0104106996011304
0.01039313628078757
0.01037301793637615
0.0103600581125896
0.01034485710449972
0.01033434992925624
0.01032281500934498
0.01031442614249436
0.01030590317504655
0.01029802658919807
0.01029132652468752
0.01028500588496625
0.01027903800002697
0.01027358726449885
0.0102685666520812
0.01026368537106156
0.01025933622329746
0.0102553780024226
0.01025129882986675
0.01024749980228226
0.01024414566609164
0.01024071668379842
0.01023715535745589
0.01023383018069641
0.01023062919931168
0.01022737780698194
0.01022428104402289
0.01022113326704899
0.0102181440229199
0.01021527545815111
0.01021252716230548
0.01020966843154992
0.01020697929593952
0.01020449310128282
0.01020234071943595
0.01020043201933443
0.01019878414511404
0.01019754976223208
0.01019684713441525
0.01019708701464435
0.01019920582377547
0.01020420295019678
0.01021132148713808
0.01021562128141327
0.01020603782870743
0.01017509245819466
0.01012681756785715
0.01007532628226311
0.01003265063737871
0.01000186431445342
0.009981255932940837
0.009974861057126791
0.00997345881487981
0.009973150563361583
0.00997308554018296
0.009973073491415458
0.009973073578687331
0.009973093570913815
0.009973262714198407
0.009974517092497468
0.009982295255172628
0.06435624697211992
0.02376551624109716
0.01438524331155439
0.01467590294253375
0.01219971843283392
0.0123913557930441
0.01142095815327755
0.01145608608943401
0.01112360389636205
0.01101151328744457
0.01086341100743111
0.01076991842710595
0.01068113344017909
0.01062316894342679
0.01056418615386403
0.01052438262793944
0.01048598021107658
0.01045535087496543
0.01043027865375915
0.01040600337079732
0.01038941295028343
0.01037039800086519
0.01035875697235041
0.0103439765332268
0.01033464279210631
0.01032324001424667
0.01031533249179594
0.01030701536195602
0.01029932782474946
0.01029282421917858
0.01028671998894802
0.01028091069638716
0.01027562628081002
0.01027081651064113
0.01026615949740946
0.01026184028710343
0.01025791428583349
0.01025410653298849
0.0102501241850021
0.01024646577375512
0.01024319055394656
0.01023972010042541
0.01023631034531928
0.01023303580620005
0.0102298136874076
0.01022676826617028
0.01022387146874793
0.0102209146243314
0.01021789912700896
0.01021500218878933
0.01021251504264099
0.01021001003584126
0.01020753283210876
0.01020529604433807
0.01020335625830517
0.01020162787954114
0.01020036425722421
0.01019968706248471
0.01020005155724288
0.01020228268926189
0.01020714835740627
0.01021371531876972
0.01021644242151793
0.01020437345404348
0.01017071056059384
0.01012124728870656
0.01007014414271507
0.01002860807537227
0.009999323505536077
0.009980053009521624
0.009974584074552073
0.009973395356445751
0.009973136392712313
0.009973082720655389
0.009973073149510032
0.009973075030872334
0.009973104595460379
0.009973331655734047
0.009974855391216101
0.009983289318195499
0.05698855843639155
0.02442204954133301
0.01434585351262368
0.01459990697967958
0.01211796335064233
0.0123043893317188
0.01140447194043495
0.0113859001762721
0.01109227934607296
0.01096166255108456
0.0108270774678523
0.0107409472029393
0.01065470714753265
0.01060424772260507
0.01054532117452011
0.01051213440267597
0.01047281891554347
0.01044753926363815
0.0104218740569176
0.01040126748100749
0.01038495659819249
0.01036787595137546
0.01035707241364339
0.01034314572914007
0.01033490114618572
0.01032405500030935
0.0103171766475176
0.01030939048911869
0.01030231269788198
0.01029609123690195
0.01029038743343735
0.0102848222408657
0.01027964726056401
0.01027494005845097
0.01027042170333402
0.01026612853466796
0.01026210202683207
0.01025829485662799
0.01025440801855224
0.01025058097721718
0.01024700309004474
0.01024354088365747
0.01024004439910377
0.01023659428857748
0.01023335072149265
0.01023014232476986
0.01022695487360228
0.01022387992521799
0.01022095249173737
0.01021803557259326
0.01021511513761672
0.0102124703817167
0.01021012395048478
0.01020798483845234
0.01020605317396718
0.01020436183046598
0.01020305474722188
0.01020241639851095
0.01020283482308862
0.01020526953142834
0.01021006898235819
0.01021592979000919
0.01021665065201441
0.01020139843681226
0.01016483870755481
0.01011415487380533
0.01006391339984084
0.01002418266866043
0.009996201085352343
0.009978840674668275
0.009974312021779756
0.009973334237526168
0.009973123067809073
0.009973080178558734
0.009973072993931147
0.009973077365705277
0.009973120404074165
0.009973421157029179
0.009975248398503497
0.009984297909648436
0.05086916610068708
0.02489039016767584
0.0141588800108189
0.01437769622270305
0.01202869067409096
0.01216924624412606
0.01137462812362073
0.01130557223710593
0.01104688141804383
0.01091988338645365
0.01078638244542797
0.01070981699918468
0.01062686147042282
0.01058305055783893
0.01052628916265526
0.01049856037680831
0.01045970886712816
0.01043956498447288
0.01041342375336079
0.01039729141860243
0.01038027325679135
0.01036639198528917
0.01035538554039472
0.01034313339806154
0.01033527881262265
0.01032478752005255
0.01031826724139242
0.01031073558209418
0.01030435888822311
0.01029804818753727
0.01029267899483678
0.01028730313643895
0.01028219170522245
0.01027755189904078
0.01027302228224113
0.01026876472198428
0.01026456765046896
0.01026090108443616
0.01025700103682723
0.01025301295312488
0.01024939465547163
0.01024583405254905
0.01024229551022713
0.01023893956423794
0.01023566086760083
0.01023241735490031
0.01022917064496599
0.01022601464395036
0.01022303208146629
0.01022020451033994
0.01021748696158135
0.0102149440558798
0.01021256226762321
0.01021040507135549
0.01020844551447011
0.01020677823226289
0.01020553777163384
0.01020499714675079
0.01020562853610542
0.01020804063851067
0.01021281034649283
0.01021778466555497
0.01021595626423243
0.01019692884707273
0.01015749736801019
0.01010603047007156
0.01005703739382798
0.01001912997861927
0.00999301968908999
0.00997769078639745
0.009974058861905223
0.009973278190459111
0.009973111117013453
0.009973078025049131
0.009973073131360354
0.009973081035938027
0.009973142810420582
0.00997353613468885
0.00997570126270223
0.009985316826171535
0.04565052529166332
0.025170650800143
0.01394128548889431
0.01414946190243262
0.01194724341275955
0.0120229642877969
0.01134190620495429
0.01122004477537179
0.01098936946708305
0.01086739939449338
0.01074495071842077
0.01067722636451145
0.01060032541364854
0.01056105607112739
0.01050976987355609
0.01048475348009681
0.01044926624216473
0.01043225874811257
0.01040695490021075
0.01039459806096678
0.01037664956770358
0.01036621471830727
0.01035427507319392
0.01034453752927065
0.01033649553754819
0.01032728894477834
0.01032107016257935
0.01031366210682878
0.01030799905590281
0.01030156915581368
0.01029636488114363
0.01029095349995319
0.01028600952105108
0.01028130320063675
0.01027672056763784
0.01027234271301427
0.01026792822102145
0.01026400106047563
0.01026013610637452
0.01025610361322394
0.01025228245405732
0.0102485718819078
0.01024495147008516
0.01024145041290363
0.01023808600114359
0.01023488183840098
0.01023170163028945
0.01022857173367276
0.01022545093285593
0.0102224580306851
0.01021966516428473
0.01021706321288888
0.01021468960191268
0.01021258166987671
0.01021063887989019
0.01020904247474473
0.01020792793625781
0.01020738409315441
0.01020814217977449
0.01021080470205953
0.01021518816785796
0.01021895219455928
0.0102139539750981
0.01019092266794753
0.0101482747264229
0.01009652565608325
0.01004935165449948
0.01001394048365759
0.009989464472062485
0.009976658053576316
0.009973834292049649
0.009973229068492032
0.009973100889382251
0.009973076314126861
0.009973073713754924
0.009973086699383689
0.009973174183993712
0.009973682261703748
0.009976218743153449
0.009986340923939041
0.04120302594366096
0.02526168314969147
0.01375205526985057
0.01389398774839659
0.01186142957845307
0.01184606636626501
0.01129879734306882
0.01112873447533263
0.01092866377571419
0.01081968173355077
0.01070670817249923
0.0106466946402508
0.01057762710235431
0.01054163446070856
0.01049610617819751
0.01047288854347811
0.01044157248067755
0.010425828269066
0.01040296181905672
0.01039217662048635
0.01037482530233258
0.01036654156286395
0.01035390965616449
0.01034612924644344
0.01033723269476136
0.01032938553511433
0.01032283798456776
0.01031584104966533
0.01031066582524359
0.01030429086434597
0.01029929524820522
0.01029383707187768
0.01028896472312855
0.01028433570468737
0.01027966609209306
0.01027530459989988
0.01027078912025175
0.01026671062960456
0.01026270331379537
0.01025855257823184
0.01025467992797671
0.01025100611957714
0.0102473223843063
0.01024369235107263
0.01024018801688235
0.01023676244384249
0.01023342848316357
0.01023027141351967
0.01022722953318165
0.01022437311731448
0.01022171374053864
0.01021911343577943
0.01021668746790539
0.01021454824865032
0.01021270889693333
0.01021111833926579
0.01020999658059839
0.01020957914800975
0.01021060566929704
0.01021343065248379
0.01021738814226757
0.01021933630080656
0.01021062370549126
0.01018315844770585
0.01013799880819079
0.01008636275913284
0.01004138086906702
0.01000852440924722
0.009985726444919249
0.009975775590009761
0.009973643565941121
0.009973187807224013
0.009973092577048846
0.009973075013101412
0.009973074989446216
0.009973095291553342
0.009973217568038647
0.009973865944242429
0.00997680485762048
0.009987363673342764
0.03746578083677973
0.02501551295462061
0.01354372946492182
0.0135515807370982
0.01178081682215387
0.01169589892656626
0.01124269087336064
0.01104916769627547
0.01087132771997838
0.01077566222478064
0.01067386020074131
0.01062028295970751
0.01055779075920166
0.01052534648670236
0.01048414410067026
0.01046337287271683
0.01043480786056868
0.0104205128513571
0.01040004597302744
0.0103898286022844
0.01037462481808279
0.01036719507210317
0.01035474279870027
0.01034892447182969
0.01033919059626216
0.01033319412605899
0.01032575832197008
0.0103195100445638
0.01031419708755312
0.01030806438388056
0.01030309856598271
0.01029752168995268
0.01029253094543323
0.01028780965892129
0.01028304290083312
0.01027845421537525
0.01027382771286912
0.01026932302155766
0.01026513183447174
0.01026084717176661
0.01025672913327557
0.01025271833705976
0.01024893164324706
0.01024538228580453
0.01024202355315969
0.010238666054867
0.01023529078157346
0.01023197804280882
0.0102289342631555
0.0102260461576389
0.01022337069190635
0.01022082677145653
0.01021852585170292
0.01021638028047813
0.01021443881651849
0.01021291322583898
0.01021187483891848
0.01021173506505895
0.01021293007466941
0.01021569698996808
0.01021908378747642
0.01021865792146628
0.01020547992297926
0.01017377191873233
0.01012614061569371
0.01007551504684578
0.01003323561159273
0.01000306474928481
0.009982411118674766
0.009975052892501994
0.009973488006736366
0.009973154526420787
0.009973086142591889
0.009973074256417641
0.009973077305309757
0.0099731081215618
0.00997327677820172
0.009974094181802064
0.009977462408736903
0.009988377220684802
0.03423442721557226
0.02448108007547831
0.0133275716309695
0.01318730365551919
0.01171180741736171
0.01153986628154793
0.01116809732593475
0.01098589329162531
0.01082416488546974
0.01073366862703007
0.01064415099678402
0.01059643695605718
0.01053974367338592
0.0105111889381055
0.01047391014417818
0.01045559439374639
0.01042997510404546
0.01041744295193125
0.01039891825933661
0.01038965827396183
0.01037531046903775
0.01036827286931695
0.01035679238898978
0.0103513144286411
0.01034126755507713
0.0103365508521155
0.01032811290594757
0.01032288695575122
0.01031674822461271
0.01031120729402731
0.01030581126291126
0.01030036680195612
0.01029515496155315
0.01029031454795419
0.01028542373284762
0.01028088758926124
0.01027614195753658
0.01027173287695374
0.01026720605224397
0.01026294368293003
0.01025887956350311
0.01025490709089608
0.0102509657091548
0.01024720938060494
0.01024357983030181
0.01024007289287054
0.01023670446217303
0.01023345528765461
0.01023038911829465
0.01022747092505064
0.01022471128835808
0.01022222153874707
0.01021990414149871
0.01021777704540345
0.01021592501386627
0.01021447822318248
0.0102136191727615
0.01021363803013681
0.01021497951770935
0.01021758993121666
0.01021994044641091
0.01021648612615887
0.01019872478118066
0.01016240040518677
0.01011324306397991
0.01006431054618505
0.01002512463443963
0.009997772808532307
0.00997976441565865
0.009974483920756897
0.009973365866323445
0.009973128731409939
0.009973081410526548
0.00997307404374926
0.009973081140616864
0.009973126971938381
0.009973356465609167
0.009974374300530511
0.00997819241958073
0.009989372440241956
0.03143826983934262
0.02384992401970053
0.01313673108862751
0.01287659578085923
0.01164728640883213
0.0114102023028851
0.01107361123583543
0.01091337370047078
0.01077699475664412
0.01069714605451896
0.01061695297677297
0.01057567178980448
0.01052513585791027
0.01050022993503718
0.01046705653776234
0.01045071570775006
0.01042780546451299
0.01041654981683907
0.01039935133704246
0.01039115728130114
0.01037781469592172
0.01037122995651522
0.01036011064098361
0.01035452799124605
0.01034491149861969
0.01034028021874696
0.01033126180295087
0.01032684776685011
0.01031932698167465
0.01031459864638414
0.01030833564439943
0.01030323938639404
0.01029749829108327
0.010292719996874
0.01028719245549922
0.01028275327778801
0.010277624691178
0.01027330331161491
0.01026861962003355
0.01026448792072707
0.01026015741540555
0.01025626871016278
0.0102522615303529
0.01024847309524378
0.01024480386146981
0.01024128576490426
0.01023787562512
0.01023460687370221
0.01023152461548091
0.01022865888726767
0.01022597900568496
0.01022343689162211
0.01022114117689932
0.01021909614698263
0.01021729384424905
0.01021592153244925
0.01021513511840987
0.01021537214679004
0.01021682280197056
0.01021914577341249
0.01021998484216916
0.01021261955370251
0.01018980009657213
0.0101495192292813
0.01009965334567096
0.01005308570679935
0.01001723060810726
0.009992679978297381
0.009977735475973621
0.009974052378360805
0.009973273421673397
0.00997310954749034
0.009973078159875175
0.009973074653042271
0.009973087246362174
0.009973154194414783
0.009973462094945224
0.009974713494836486
0.009978993498544624
0.009990339197466823
0.02900338767454974
0.02264557152027415
0.01294085889266955
0.01255269282928734
0.01157723783659935
0.01128556154318222
0.01101489182022397
0.0108593217058667
0.01073607189488495
0.01066550301069088
0.01059555036622474
0.01055953833416571
0.01051495973200763
0.01049278674598988
0.01046313759363796
0.01044854674416214
0.01042757112159695
0.01041722458049442
0.01040144002720249
0.01039357027749859
0.01038068044332141
0.01037438417121539
0.01036329812086035
0.01035788454711294
0.01034815499981122
0.01034321564115671
0.01033434892265253
0.01033001156637648
0.01032159411807427
0.01031748862591037
0.01030992841119576
0.01030546498272745
0.01029888538717199
0.01029434542776929
0.01028831592461916
0.01028393439056177
0.01027853280766593
0.01027420554306631
0.01026937247530248
0.01026525900643274
0.01026082328972035
0.01025696334732801
0.01025291565255611
0.01024919163599077
0.01024555560350136
0.01024211110258228
0.01023878584176898
0.0102355331245023
0.01023250219601502
0.01022968474159969
0.01022697091862883
0.01022445505200322
0.01022212478935302
0.01022008970895679
0.01021840039591584
0.01021717098295408
0.01021653199019096
0.01021698326634193
0.01021853009379093
0.01022027509329213
0.01021860257120968
0.01020694241284703
0.01017891392537556
0.01013533004672403
0.01008581207800974
0.01004218620512661
0.01000971896698968
0.009987821579280862
0.009976241733387806
0.009973736076738645
0.009973205919112507
0.009973096016872648
0.009973076035894705
0.009973076360460098
0.009973096679080029
0.009973192782589386
0.009973599792519388
0.009975118157129818
0.009979861122834362
0.009991266556919533
0.02688450497469896
0.02148154044864517
0.01276422386542848
0.01228841309292643
0.01149897372503497
0.01118275212481228
0.01093771316819959
0.0108091507232327
0.01070125237942722
0.0106417747788567
0.01057870332044905
0.01054711147548716
0.01050761470511342
0.01048807276830647
0.01046130588924988
0.01044832958341271
0.01042905672630393
0.0104196448933621
0.01040459075994874
0.01039726572829727
0.01038468074088702
0.01037841738545941
0.01036731579183757
0.01036181268623071
0.01035168467051294
0.01034664683239549
0.01033733566552912
0.01033260276074897
0.01032397819114538
0.01031956235678601
0.01031140837655351
0.0103071834460264
0.01029990767910362
0.01029552972195883
0.01028911017756957
0.01028477832708802
0.01027913932903154
0.01027480353085306
0.01026983962731986
0.01026570943557988
0.01026119477109229
0.0102573250832139
0.01025323891231223
0.01024952414306017
0.01024588933529886
0.01024246232661922
0.01023918154281941
0.01023599746702088
0.01023301972897423
0.01023029099438688
0.01022767147846107
0.01022523011995146
0.01022288827991373
0.01022081523222714
0.01021926725820128
0.01021825369691397
0.01021777640845855
0.01021839029078677
0.0102197813926115
0.01022031461998447
0.01021573221324038
0.01019921970334789
0.01016624241234656
0.01012031488497799
0.01007207329159654
0.01003180845621592
0.01000284713606809
0.009983090369558514
0.009975185878591043
0.009973511416808058
0.009973158306438919
0.009973086926117279
0.009973075006424579
0.009973079584061052
0.009973110869244078
0.009973246351933756
0.009973775950128319
0.009975592873079519
0.009980786871210706
0.0099921432404234
0.02498598723687319
0.01999696748372527
0.01260198900336521
0.01202116622299888
0.01137754099142363
0.0110900266290047
0.01089235771496783
0.01076770131330147
0.01067286534503711
0.01062099848981583
0.01056566640923722
0.01053818058896203
0.01050332096027271
0.01048630488666286