/*--------------------------------*- C++ -*----------------------------------*\
| =========                 |                                                 |
| \\      /  F ield         | OpenFOAM: The Open Source CFD Toolbox           |
|  \\    /   O peration     | Version:  v1912                                 |
|   \\  /    A nd           | Website:  www.openfoam.com                      |
|    \\/     M anipulation  |                                                 |
\*---------------------------------------------------------------------------*/
FoamFile
{
    version     2.0;
    format      ascii;
    class       volScalarField;
    location    "0.003";
    object      nut;
}
// * * * * * * * * * * * * * * * * * * * * * * * * * * * * * * * * * * * * * //

dimensions      [0 2 -1 0 0 0 0];


internalField   nonuniform List<scalar> 
16000
(
9.080868483847643e-07
1.628515909341297e-05
1.345645032940487e-05
1.486978294701178e-05
1.418296656755809e-05
1.794028185688515e-05
2.142518330086898e-05
2.810071879253018e-05
3.241075292700058e-05
3.374878370783152e-05
3.462993037473562e-05
3.42721160943936e-05
3.443041750508014e-05
3.438766846054703e-05
3.440396722360689e-05
3.448367430334252e-05
3.475367683762957e-05
3.522492956686235e-05
3.594388583511151e-05
3.689338745323716e-05
3.80427686731421e-05
3.935886323877157e-05
4.080613936083762e-05
4.236335356419274e-05
4.40455391449838e-05
4.586914595110593e-05
4.787066454722731e-05
5.0109573427922e-05
5.261154223822941e-05
5.54490560902393e-05
5.865013199779379e-05
6.230236384930329e-05
6.644443012184262e-05
7.117474336581573e-05
7.659481794638023e-05
8.281463312444889e-05
9.000546919947305e-05
9.832415368550986e-05
0.0001080052858963531
0.0001192507055917334
0.0001323688351757774
0.000147710916997919
0.0001656744663267397
0.0001866636626324475
0.0002112868417797187
0.0002401417011090857
0.0002739814775883869
0.0003136453211912525
0.0003600839925590751
0.0004143121019271864
0.0004774796314090245
0.0005507399977818546
0.0006350247244233947
0.0007306655112049047
0.0008365961496324889
0.0009489970804353698
0.001005598691001074
0.001006882651572836
0.001008032706205828
0.001009082416883804
0.001010098189539442
0.001011081849756924
0.001011828011523587
0.001011744027668124
0.001010488603542548
0.001008164032004172
0.001005565870000113
0.001003297062560245
0.001001580528756036
0.001000362530403362
0.0009999249690077899
0.0009998181561744108
0.000999792183663546
0.0009997860370077791
0.0009997846953540787
0.0009997844371363244
0.000999784401028098
0.0009997845145932539
0.0009997860401662288
0.0009998067977500787
8.61415643822007e-07
1.735036394303586e-05
1.433543734532481e-05
1.678477241248641e-05
1.444515855468693e-05
1.752857528702334e-05
1.988071410765651e-05
2.623679260497355e-05
3.005480860983472e-05
3.22136658386275e-05
3.258536378752644e-05
3.23850162009178e-05
3.240228359561108e-05
3.22513593986041e-05
3.227821065655665e-05
3.232705109735619e-05
3.260223815001313e-05
3.303008312405452e-05
3.368525833430109e-05
3.452863606304569e-05
3.55398894481762e-05
3.67014382671766e-05
3.797423065362208e-05
3.93586055438193e-05
4.08544199467624e-05
4.248894122336913e-05
4.429531216477497e-05
4.631890088711397e-05
4.859184351040226e-05
5.116963196511197e-05
5.408714742816313e-05
5.742289245651035e-05
6.121063085348037e-05
6.555613582913122e-05
7.053814004641816e-05
7.628039954252459e-05
8.292328331810665e-05
9.063588847769875e-05
9.96425962109022e-05
0.0001101526478868961
0.0001224585529551089
0.0001369112613249138
0.0001539047387004473
0.0001738320613215388
0.0001973328120066604
0.0002250255964492524
0.0002576438763225391
0.0002960916658363426
0.0003413057570308527
0.0003943788535427475
0.0004564901578907385
0.0005288488959892833
0.0006124960862937416
0.0007079400842483919
0.0008143916844859284
0.000928394551558551
0.001005474918786427
0.001006790100331528
0.001007954050281229
0.001009019152254825
0.00101005556833568
0.001011098934497227
0.00101195929213433
0.001012033503836493
0.00101085600252255
0.001008540271393857
0.001005829523930698
0.001003456817311142
0.001001672070380229
0.001000396148855287
0.0009999298630496056
0.0009998186747018929
0.0009997921794312309
0.0009997860006398728
0.0009997846799448531
0.0009997844320456062
0.0009997843941085059
0.0009997845504271336
0.0009997866621545479
0.000999813577322426
7.677966616651363e-07
1.569626198062912e-05
1.468640438092624e-05
1.871395274813744e-05
1.468437307815711e-05
1.782696179768214e-05
1.922719275094816e-05
2.457749690167677e-05
2.889402608072681e-05
3.034024132532814e-05
3.102340849942671e-05
3.047933047769116e-05
3.052256380942027e-05
3.022016026820954e-05
3.02652405320029e-05
3.024205622924789e-05
3.051876643303144e-05
3.086710328353988e-05
3.145427278108939e-05
3.218331202185167e-05
3.306633612345592e-05
3.408734559988941e-05
3.520806824665306e-05
3.644972695042069e-05
3.78077424383262e-05
3.93100159981267e-05
4.098535247757436e-05
4.286863653156886e-05
4.499450135000004e-05
4.74083860584001e-05
5.014836674636495e-05
5.328652268357026e-05
5.685645715857064e-05
6.096430553425222e-05
6.568249526434807e-05
7.113962500542697e-05
7.746738603704632e-05
8.483887080329588e-05
9.347527250543438e-05
0.0001035950631743719
0.0001154858416508746
0.0001295060847947689
0.0001460620789950027
0.0001655532971068151
0.0001886443155424235
0.0002159813294383843
0.0002483104691004104
0.0002865943453108388
0.0003317885389019677
0.0003850555538193599
0.0004476021729429596
0.0005206802590423037
0.0006053807315199725
0.0007022672456323006
0.0008106156063546078
0.0009269910382187123
0.001005431545510588
0.001006769049936624
0.001007944822508081
0.001009017261341117
0.001010044467147785
0.001011089320988828
0.001011977905836182
0.001012114500724805
0.001010989738998834
0.001008703270451609
0.001005940275979209
0.001003519764139737
0.001001706929259169
0.001000412782691486
0.0009999319338153386
0.0009998186322069602
0.0009997920128017499
0.0009997859371877963
0.0009997846634820073
0.0009997844287361821
0.000999784409245034
0.0009997846505482978
0.0009997876241872124
0.0009998207627320438
6.875791175918066e-07
1.52214264128331e-05
1.485168784377832e-05
1.914297700913213e-05
1.455730771351095e-05
1.839474238607476e-05
1.899670912859662e-05
2.360623779097933e-05
2.81387960085388e-05
2.876631903561337e-05
2.960009995732885e-05
2.87451798502941e-05
2.880626477050247e-05
2.833836644041105e-05
2.842617962404624e-05
2.831008578064693e-05
2.861479313705159e-05
2.886952699581611e-05
2.943721659162347e-05
3.00334161079976e-05
3.085527628407132e-05
3.173528873745781e-05
3.276568713731887e-05
3.388685813627484e-05
3.514845033785121e-05
3.654062378900831e-05
3.811314501168875e-05
3.987857191398191e-05
4.188147457577644e-05
4.415191887012472e-05
4.67373766206586e-05
4.969918372200012e-05
5.307963026101568e-05
5.697732624978144e-05
6.146584980571479e-05
6.667477299408938e-05
7.272889811577919e-05
7.980511732804226e-05
8.811895193200222e-05
9.78949624815224e-05
0.0001094134072308547
0.0001230298419620122
0.0001391611125396811
0.0001582022618620056
0.0001808295500559303
0.0002077053888833868
0.0002395771226863712
0.0002774535708427571
0.0003222742921686069
0.0003752633372502679
0.0004376093736889461
0.0005105993262519643
0.0005953167862110319
0.0006923577616861459
0.0008010550785605113
0.0009181288583101305
0.001005430686801635
0.001006770026030891
0.001007959085604795
0.001009054772539081
0.001010089175770962
0.001011137369402522
0.001012031899265056
0.001012184100450938
0.001011068372306459
0.001008786179718013
0.001005985773239451
0.001003540752116353
0.001001714302272891
0.001000415263098943
0.000999929786415203
0.0009998175213371176
0.0009997916431566476
0.0009997858334286033
0.000999784639274088
0.0009997844238942954
0.0009997844192929676
0.0009997847730958396
0.0009997886978334095
0.0009998280383710849
6.155473315212865e-07
1.518033492790296e-05
1.498503407016487e-05
1.892709139552263e-05
1.422315559466941e-05
1.79829664438658e-05
1.857551644707647e-05
2.27014340374041e-05
2.739483952516379e-05
2.716920015921414e-05
2.794916258963424e-05
2.694044237729355e-05
2.683983503567419e-05
2.637650235899172e-05
2.638529048684271e-05
2.628029021483306e-05
2.655285837073576e-05
2.675699840534812e-05
2.730116688098704e-05
2.780298570232322e-05
2.856883065325456e-05
2.934286635181666e-05
3.029711173233947e-05
3.132086569139009e-05
3.250084203695109e-05
3.380191649876169e-05
3.528893032396307e-05
3.695574295722524e-05
3.885698396444312e-05
4.101174961886496e-05
4.347383724561847e-05
4.629742686098368e-05
4.952833073565056e-05
5.326087883612882e-05
5.756889950819891e-05
6.257995805063027e-05
6.841827222747591e-05
7.525696497627721e-05
8.331000659191873e-05
9.280302352081749e-05
0.0001040126985249474
0.0001172928805667966
0.0001330687525972383
0.0001517360873319149
0.0001739763080201028
0.0002004630784154209
0.0002319561288912153
0.0002694869880482055
0.0003140130249588185
0.000366798395032767
0.0004290513134066328
0.0005021071847813202
0.0005870722649942556
0.0006845218178758787
0.0007937785543361989
0.0009115601982954044
0.001005489512980618
0.001006840678129195
0.00100801704008677
0.001009095822913108
0.001010144331444237
0.001011203880559156
0.001012102185063497
0.001012231921719649
0.001011086701616018
0.0009945020900264813
0.00100599162617397
0.001003517924958694
0.001001687701579904
0.001000395526172698
0.0009999231137502011
0.00099981555418586
0.0009997911024733205
0.000999785699324554
0.0009997846109371174
0.0009997844198278982
0.0009997844380989335
0.000999784946923305
0.0009997900770476944
0.000999835294090413
5.41713360004154e-07
1.531858131540496e-05
1.503082017018356e-05
1.842165373437004e-05
1.386185665055093e-05
1.72528400580291e-05
1.816112812355991e-05
2.147042583711223e-05
2.638540381545767e-05
2.53720384886707e-05
2.58984050242932e-05
2.496489020194211e-05
2.468073334391127e-05
2.434346989453921e-05
2.427274161429441e-05
2.423802997000356e-05
2.447712013148824e-05
2.46872410539545e-05
2.519474794991487e-05
2.564499854170866e-05
2.636977106868957e-05
2.705544258717765e-05
2.796475489031259e-05
2.889623956270196e-05
3.002343853624049e-05
3.123712768214264e-05
3.265782743104738e-05
3.423805984538192e-05
3.605599555804605e-05
3.811615067565131e-05
4.047756280193125e-05
4.318730019176769e-05
4.629655499487368e-05
4.989443553927605e-05
5.405521275175441e-05
5.890518525944655e-05
6.456645038440679e-05
7.121061638116222e-05
7.904880232547738e-05
8.830767674379624e-05
9.926233430559871e-05
0.0001122648173831451
0.0001277486764078136
0.0001461128094429891
0.0001680446429625822
0.0001942312034712562
0.0002254484373376109
0.0002627506903148976
0.0003071141576017216
0.0003598427825979292
0.0004221709636660086
0.0004954753169880137
0.0005808943452483713
0.0006790408195383469
0.0007891830907640032
0.0009078698128244627
0.001005632127047571
0.001006972322039514
0.001008148667727769
0.001009208941626394
0.00101023455686553
0.001011278020900625
0.001012153748382535
0.001012250450570245
0.001011071094410045
0.0009597429532763775
0.001005895213630099
0.001003432411335031
0.001001625606475164
0.001000358065874144
0.000999912818544365
0.0009998128634460092
0.0009997904261054384
0.0009997855432902095
0.0009997845813806494
0.0009997844172481133
0.0009997844634163271
0.0009997851828477287
0.0009997917195557653
0.0009998428894269643
4.709039053780545e-07
1.551149477145933e-05
1.488362118427775e-05
1.782598828335357e-05
1.349492799091985e-05
1.642562369542206e-05
1.781743846546513e-05
2.022200459995698e-05
2.502785998427543e-05
2.341169280210122e-05
2.370905671719627e-05
2.287811508381901e-05
2.252219259813209e-05
2.230290551342694e-05
2.220386494913038e-05
2.224207173962634e-05
2.245341439522162e-05
2.268234059013276e-05
2.315208418065337e-05
2.357510611691887e-05
2.425339762896734e-05
2.488442943809044e-05
2.574635810166113e-05
2.661585594191549e-05
2.769323452725558e-05
2.884535489244749e-05
3.020983147313853e-05
3.17248431844877e-05
3.34754437441696e-05
3.54599594794329e-05
3.773955250676651e-05
4.035674831440407e-05
4.33638765602538e-05
4.684761699464322e-05
5.088261547365682e-05
5.559266471164679e-05
6.109986630066133e-05
6.757327576025496e-05
7.52250829590294e-05
8.428639422032208e-05
9.502800582595186e-05
0.0001077975602567708
0.0001230577009823657
0.0001411931306850064
0.0001629049420068705
0.0001888995955928935
0.0002199675670215383
0.0002572045073599751
0.0003015834904526031
0.0003544761467548606
0.0004171134415567436
0.0004909258611284637
0.0005770421353701664
0.0006760767107193243
0.0007872524167826507
0.00090701479394636
0.001005738097352548
0.00100708250802506
0.001008246878769166
0.001009314769638797
0.001010334800130654
0.001011358471050698
0.001012196398697253
0.001012216554302551
0.001010945055049022
0.0009284893686660897
0.001005737528999238
0.001003301200013209
0.001001525001476508
0.001000306012072501
0.0009998997278636926
0.0009998096576099244
0.000999789661310084
0.000999785373599697
0.0009997845510626943
0.0009997844129993228
0.0009997845025195011
0.0009997854986906886
0.0009997936790284222
0.0009998505291171655
4.118820753442158e-07
1.569013051161815e-05
1.45049144323918e-05
1.717051642237401e-05
1.310417588085226e-05
1.560349890075269e-05
1.761506713641587e-05
1.901621312240884e-05
2.335990569501751e-05
2.144300800488485e-05
2.148931653773056e-05
2.079417566750399e-05
2.044006603153641e-05
2.031825014068129e-05
2.022294296149541e-05
2.031737649921361e-05
2.051487049664743e-05
2.076146054330088e-05
2.120091719568616e-05
2.161018967616216e-05
2.22492562221066e-05
2.284584502434214e-05
2.36692897948217e-05
2.449529175201239e-05
2.553349126827926e-05
2.663627034431974e-05
2.795785409350239e-05
2.941404227836904e-05
3.110830724418659e-05
3.302011932992631e-05
3.522093608112238e-05
3.774431325979049e-05
4.064942614822918e-05
4.402134423216294e-05
4.793418313371964e-05
5.251514466705052e-05
5.788716293455381e-05
6.421636371858461e-05
7.171680851815884e-05
8.062431153242017e-05
9.120668165298077e-05
0.000103804930508821
0.0001189137940678744
0.0001369160121674592
0.0001585120445744308
0.0001844407148637526
0.0002155041397210783
0.0002528393617791145
0.0002974336102147583
0.0003507246785100952
0.0004139367536897152
0.0004885709060139003
0.0005757270082204029
0.0006760146180113391
0.000788555072876886
0.0009096126492422698
0.001005956541094162
0.001007266524547719
0.001008394989453858
0.001009441068096283
0.001010443842417464
0.001011451585840541
0.001012228132711675
0.00101213318453521
0.0009672136659045996
0.0009017248795766917
0.001005512675808743
0.001003124581975298
0.001001399742311794
0.001000243789995566
0.0009998848767978239
0.0009998061618159426
0.0009997888578103498
0.000999785203952911
0.0009997845179051286
0.0009997844133968793
0.0009997845621699595
0.000999785922917492
0.0009997959957537543
0.0009998583624085185
3.626502319809632e-07
1.580095639938954e-05
1.389511953419278e-05
1.638727193994871e-05
1.270488637875752e-05
1.48249432853864e-05
1.753744209427285e-05
1.785989875416622e-05
2.141305655273113e-05
1.949724211774477e-05
1.932776329650479e-05
1.88059316575421e-05
1.847302778028041e-05
1.842746774842856e-05
1.83383307947161e-05
1.848637504441847e-05
1.866147263772956e-05
1.893687221548605e-05
1.933997955492861e-05
1.974916254730288e-05
2.035432664529072e-05
2.092367163078892e-05
2.172372090029971e-05
2.250009195193246e-05
2.35184519372838e-05
2.455573271736088e-05
2.584915580851171e-05
2.722728130803968e-05
2.887153012971918e-05
3.070155748107181e-05
3.283432888744173e-05
3.527553385846852e-05
3.81012445044805e-05
4.139039650441288e-05
4.521752361685898e-05
4.970943968389428e-05
5.498931311080007e-05
6.122131323601353e-05
6.861839769828554e-05
7.741830173583979e-05
8.789840272787349e-05
0.0001003962556508901
0.0001154224349817491
0.000133387026213466
0.0001549698321772645
0.0001809626768239753
0.0002121734868866744
0.0002497680061349032
0.0002947853256820513
0.0003486968925855557
0.0004127659403231947
0.0004885490650125246
0.0005771180959322008
0.0006790690782514102
0.0007933878493033693
0.0009159990437836277
0.001006195841293539
0.001007445459527389
0.001008567978572286
0.001009582738776272
0.001010569762307376
0.00101154852060832
0.00101223978372752
0.00101200870264954
0.0009046632122540321
0.0008806550627716237
0.001005223101089538
0.001002898192256761
0.001001257291904671
0.001000176282883365
0.000999869327335216
0.0009998025992801213
0.0009997880632721988
0.0009997850438139995
0.000999784488328218
0.0009997844218195709
0.0009997846525880531
0.0009997864793060442
0.0009997987051806375
0.0009998663164366365
3.205926964340911e-07
1.582704551103186e-05
1.315094311773695e-05
1.543477262819139e-05
1.226771747476538e-05
1.399776291364094e-05
1.744087066767505e-05
1.671409071597455e-05
1.928186752631487e-05
1.761806799258921e-05
1.729091786538675e-05
1.692437077672248e-05
1.660340169562987e-05
1.663383120772771e-05
1.652343383798055e-05
1.674290870110298e-05
1.68575421927417e-05
1.719722959228369e-05
1.753033522015379e-05
1.796738136742581e-05
1.848082715331165e-05
1.90284939734501e-05
1.979877967384673e-05
2.05257658855209e-05
2.151918158088261e-05
2.24938972575157e-05
2.375715851848946e-05
2.506665740261937e-05
2.667123199379176e-05
2.843193666096552e-05
3.05104187489192e-05
3.288215287168169e-05
3.563666811107269e-05
3.884919086904469e-05
4.258880709742152e-05
4.698970636291187e-05
5.216599456492834e-05
5.86565380151826e-05
6.598364784693835e-05
7.471584563930629e-05
8.514352367198306e-05
9.760563672458698e-05
0.0001126234463682473
0.0001306406743322763
0.0001523158819622024
0.0001785084923939801
0.0002100311262574975
0.0002480703864277979
0.0002937386584558853
0.0003485092986977883
0.0004137379696784868
0.0004910138009708888
0.0005813956973475872
0.0006854192089333654
0.0008018574492942749
0.0009260853574203561
0.001006454389543323
0.001007660305193646
0.001008743638096714
0.001009728046346481
0.001010706018986207
0.001011645851621098
0.001012226260806703
0.001011819099557636
0.000848250862042238
0.0008666752847980497
0.001004874654197645
0.001002650374340291
0.001001082178749177
0.001000108243947408
0.0009998540547840281
0.0009997991679148663
0.0009997873155705348
0.0009997848991345783
0.0009997844659373597
0.0009997844396485123
0.0009997847807414731
0.0009997871968276959
0.0009998018579862069
0.0009998743879257714
2.860977108793955e-07
1.577536261481857e-05
1.23156882695284e-05
1.432168226435123e-05
1.183247819178006e-05
1.310736274603904e-05
1.716503228854833e-05
1.549840697173828e-05
1.709935046442894e-05
1.579309466991421e-05
1.536463674780187e-05
1.513038426079638e-05
1.479185254713025e-05
1.491800498585039e-05
1.475113416476658e-05
1.506521721480615e-05
1.507029721310476e-05
1.546479574452832e-05
1.57361728296348e-05
1.621624844668348e-05
1.671257363108161e-05
1.729840566135753e-05
1.802148258495533e-05
1.876027087662323e-05
1.972303576288598e-05
2.068223967176093e-05
2.192969245097847e-05
2.320114014263235e-05
2.479408224519736e-05
2.650765824072035e-05
2.856196542041427e-05
3.088438081005172e-05
3.359776731209848e-05
3.676245130672499e-05
4.045071129116881e-05
4.48061143214327e-05
4.993007223816312e-05
5.602325421132022e-05
6.325619004926271e-05
7.189705737593058e-05
8.225024054848977e-05
9.539597095455285e-05
0.0001104941718350879
0.0001286635343097255
0.0001505470317590165
0.000177072737356517
0.0002090897286469661
0.0002477816037510544
0.0002943475068701231
0.000350235539029771
0.0004169449964890287
0.0004960568283531501
0.000588647979683865
0.0006950953254955413
0.0008138296724798649
0.0009393766541873161
0.00100671940262136
0.001007894111752476
0.001008937824097713
0.00100988277718556
0.001010853087747456
0.001011740475018953
0.001012167627170058
0.001011551062381046
0.0008000409713032029
0.0008613849302602239
0.001004489898975401
0.001002367316160717
0.001000903751709725
0.001000043707020372
0.0009998398433240367
0.0009997960207044703
0.0009997866437903328
0.000999784774569284
0.0009997844473226655
0.0009997844651057906
0.0009997849573109873
0.0009997881156173307
0.0009998054846210469
0.0009998825406387229
2.570624594400605e-07
1.565716344755442e-05
1.146509205180522e-05
1.311019846804921e-05
1.142058714320846e-05
1.208558149155463e-05
1.651134697147939e-05
1.411193540727231e-05
1.495230552046098e-05
1.400626119885276e-05
1.350516382249514e-05
1.339546470765123e-05
1.306394347770282e-05
1.319886610332968e-05
1.30636250879064e-05
1.337849002916596e-05
1.345547126459482e-05
1.387664997525463e-05
1.414215009157724e-05
1.466902991432071e-05
1.511788328921358e-05
1.575618624410094e-05
1.64234146480701e-05
1.719506754051384e-05
1.811666470131262e-05
1.907887419100407e-05
2.030336964654342e-05
2.154774753058238e-05
2.312899518567841e-05
2.480008633543273e-05
2.683991621470373e-05
2.911822314280299e-05
3.18103517597107e-05
3.494081572496684e-05
3.860410122821652e-05
4.294196836035075e-05
4.804285611575232e-05
5.412037301239929e-05
6.135183373303484e-05
7.000794451886614e-05
8.040602952159937e-05
9.29356222788182e-05
0.0001080841524694455
0.0001263755598476268
0.000149698773499384
0.0001766799891951264
0.0002093711736457979
0.0002489263561654376
0.0002966542671312623
0.0003539528205033046
0.0004224589500139877
0.0005037195532356472
0.0005988552624989391
0.000707949632472162
0.0008289047021434684
0.0009550703340713505
0.001007001988827485
0.001008127154100391
0.001009121431254431
0.001010057225593595
0.001010991338064259
0.001011805144361016
0.001012050560965596
0.000942541602068705
0.0007614698674309178
0.0008665313425662358
0.001004059641628156
0.001002076574838403
0.001000704338580971
0.0009999857413217328
0.0009998272366901189
0.0009997932627481749
0.0009997860655750551
0.0009997846741632694
0.0009997844355942884
0.0009997845092195269
0.0009997852078568864
0.0009997892890242831
0.000999809631782598
0.0009998907325720102
2.326495317828998e-07
1.547515355244164e-05
1.054331192656379e-05
1.178947795436886e-05
1.103329244081049e-05
1.099220968885192e-05
1.53101324139186e-05
1.259837468669176e-05
1.291546894207394e-05
1.225705947768297e-05
1.178259634900065e-05
1.169257632724801e-05
1.144719988864235e-05
1.160532704273087e-05
1.157946004435008e-05
1.187979502358099e-05
1.202281332833426e-05
1.243934776550605e-05
1.271999475923944e-05
1.325822035743767e-05
1.368948053015239e-05
1.43523547063275e-05
1.498179170399901e-05
1.578224193860979e-05
1.665991687123494e-05
1.764134273600739e-05
1.883199640837005e-05
2.007279806037998e-05
2.164223340293467e-05
2.329005982135038e-05
2.533041372881579e-05
2.758117554628953e-05
3.027537994337419e-05
3.338779941374945e-05
3.704973054091436e-05
4.139086998732104e-05
4.650368563958587e-05
5.262245312524276e-05
5.988828431311126e-05
6.861375678082948e-05
7.910985503042722e-05
9.177735632065343e-05
0.0001071644126277682
0.0001258069291474979
0.0001483500538176882
0.0001757187347964778
0.000210878613562901
0.0002514883323026197
0.0003006432770834525
0.0003596833364069309
0.0004302844994788116
0.0005139719151182424
0.0006118869904524521
0.0007236794366949316
0.0008464831200372299
0.0009721535050658132
0.001007272517561103
0.001008354482072614
0.001009311410282265
0.00101023884381384
0.001011136475926174
0.001011838358088183
0.001011863181715736
0.0008360296159097214
0.0007336566015512046
0.000884274954303019
0.001003613277793856
0.001001773075766457
0.001000494618653219
0.0009999362086399951
0.0009998165306004268
0.0009997909466665767
0.0009997855932328784
0.0009997845896948211
0.0009997844340739514
0.0009997845785368234
0.0009997855564811643
0.000999790763709411
0.0009998143310997211
0.0009998989118033359
2.124425751415228e-07
1.513900687279583e-05
9.653593062610384e-06
1.041068934815763e-05
1.076488534418796e-05
1.011972528972173e-05
1.361141645227414e-05
1.114785985018198e-05
1.106204507161989e-05
1.060752852546692e-05
1.017991782073345e-05
1.016550198627614e-05
1.002725944135872e-05
1.019855815958186e-05
1.023853752900955e-05
1.053687432257736e-05
1.072043544740077e-05
1.112373649901472e-05
1.144046110614456e-05
1.196342126861932e-05
1.24147973749429e-05
1.307920541873768e-05
1.369747705131514e-05
1.45240444782274e-05
1.536727490647282e-05
1.638560822714822e-05
1.749749077027647e-05
1.875462112578569e-05
2.029263946441044e-05
2.193021962704676e-05
2.395811941207636e-05
2.617846819510234e-05
2.886431629237868e-05
3.19431509460946e-05
3.559167145422141e-05
3.991044666981517e-05
4.500588678131147e-05
5.112139795140224e-05
5.841476070547736e-05
6.718867185838783e-05
7.777268011648471e-05
9.125151157986447e-05
0.0001069284735129792
0.0001260192915753581
0.0001491340745110079
0.0001772633007667628
0.0002115246351939746
0.0002530438019358431
0.0003062768205694906
0.0003673658109346994
0.0004403357567627709
0.0005266881862667557
0.0006274845471107738
0.0007418603880025276
0.0008658532595875603
0.0009895282703335981
0.001007545490651103
0.001008586324825532
0.001009507756264121
0.001010409487243604
0.001011254789153607
0.001011818750470997
0.001011587597684098
0.0007543798680553382
0.0007174339584318735
0.0009172115991531623
0.001003157066183249
0.001001467034565888
0.001000308604956359
0.000999895642070468
0.0009998077983584938
0.0009997890787311293
0.0009997852269864104
0.0009997845309659681
0.0009997844444583428
0.0009997846802776995
0.0009997860312704807
0.0009997925922393446
0.0009998195973214448
0.0009999070186565812
1.952601205475496e-07
1.468302235627396e-05
8.865452971815526e-06
9.167130315781741e-06
1.056372256223821e-05
9.175533240751616e-06
1.163755242645151e-05
9.759303529479174e-06
9.401484964381403e-06
9.077043596906407e-06
8.76910264459565e-06
8.817133055626089e-06
8.74195225653285e-06
8.940796916932059e-06
9.027869887767404e-06
9.330452988200815e-06
9.55326969031723e-06
9.95383986159871e-06
1.030233585332099e-05
1.081637771812665e-05
1.129630257345553e-05
1.195444149592925e-05
1.256592340969056e-05
1.339582155602426e-05
1.422093227238824e-05
1.526359346832263e-05
1.637294679398757e-05
1.76712520819838e-05
1.918109723193905e-05
2.08439522646097e-05
2.287005571529993e-05
2.509641127124391e-05
2.780426038384159e-05
3.089069737387358e-05
3.457567195959029e-05
3.892965487443737e-05
4.408541792377743e-05
5.028783030160319e-05
5.76830880593765e-05
6.662713523828112e-05
7.741507532944407e-05
9.052195091775458e-05
0.0001064566975838584
0.0001259241543434242
0.0001508488459607431
0.0001798750704343296
0.000215251217842159
0.0002581641986896392
0.0003104300870049166
0.0003733519666954788
0.0004524759322708943
0.0005416524677906226
0.0006452640914530066
0.0007619215907641622
0.000886212319722923
0.001006129394573791
0.001007817449581832
0.001008799390193053
0.001009688599475685
0.001010561364977758
0.001011337490673295
0.001011720144112485
0.0009510040386526206
0.0006942086220794686
0.0007137416391852843
0.0009686882812161473
0.001002702789513356
0.001001170310566911
0.001000160081840453
0.0009998637028361794
0.0009998009412276554
0.0009997876299511765
0.0009997849526247854
0.0009997844815783253
0.0009997844699825519
0.0009997848298662724
0.0009997866703473544
0.0009997948373038747
0.0009998254469755722
0.0009999149767020807
1.806741295170064e-07
1.422585166154561e-05
8.124945988051443e-06
8.020154208925766e-06
1.0281825352509e-05
8.265363182855329e-06
9.631221910106037e-06
8.296845537699001e-06
7.917351983743346e-06
7.721963651653211e-06
7.521605310957528e-06
7.619516013344631e-06
7.608813607578842e-06
7.827200849088132e-06
7.964485183552091e-06
8.269996047817916e-06
8.528543516861135e-06
8.930247724275837e-06
9.303454774444945e-06
9.805559557802173e-06
1.030565369726105e-05
1.095348313919523e-05
1.160583502138267e-05
1.24336944390785e-05
1.327291046944552e-05
1.433349485315687e-05
1.543258836301451e-05
1.677490627077681e-05
1.825878900600963e-05
1.997088846052134e-05
2.199080887982261e-05
2.425264726178453e-05
2.698769154238251e-05
3.010658375329178e-05
3.384602501790558e-05
3.825687180384818e-05
4.349224514920237e-05
4.980719877189945e-05
5.735266098410362e-05
6.651252217041954e-05
7.757606071129839e-05
9.105066258470298e-05
0.0001074225617497968
0.0001274762171328301
0.0001519667344161406
0.0001818303121569427
0.0002202158812841844
0.0002647116489319711
0.0003188214179893662
0.000384170724334957
0.0004620533848166305
0.0005585948798464855
0.0006648549122682401
0.0007831830623723331
0.0009066562794963519
0.001006986029535771
0.001008064880741098
0.001008998644183778
0.001009864576173488
0.001010702723645385
0.001011389136154377
0.001011531910096665
0.0008027061366080446
0.0006527555781113422
0.0007237276848997106
0.001004274383345376
0.001002260665394039
0.001000884695692928
0.001000046211770573
0.0009998394786519085
0.0009997957503946207
0.0009997865455981022
0.000999784762475336
0.0009997844527554244
0.0009997845143078991
0.0009997850472752911
0.0009997875183701964
0.000999797555871659
0.0009998318610265889
0.0009999227080681259
1.68299310415552e-07
1.268972677580571e-05
7.461654228668301e-06
6.991794615078721e-06
9.747293232117775e-06
7.351710458316204e-06
7.861790266985645e-06
6.931464607042274e-06
6.637934021719306e-06
6.554531429099441e-06
6.446354370541546e-06
6.577165591831741e-06
6.630597077441302e-06
6.855956652962413e-06
7.034689172283018e-06
7.34493804186565e-06
7.632614705766924e-06
8.027301068313534e-06
8.424561088394658e-06
8.937258030321222e-06
9.461151384457053e-06
1.011408199256387e-05
1.079076277358911e-05
1.162130968102101e-05
1.248978189399641e-05
1.355726640200073e-05
1.467060010257464e-05
1.604931256458002e-05
1.752217771057929e-05
1.92504639287953e-05
2.124480484528931e-05
2.355117026345585e-05
2.628400354666756e-05
2.94343552187182e-05
3.320552489216279e-05
3.766274027476249e-05
4.296439786632421e-05
4.937119242854581e-05
5.702247327259673e-05
6.680790097628296e-05
7.817344779337206e-05
9.212286025937251e-05
0.0001090191376940532
0.0001297750032774047
0.0001551317799561558
0.0001860709064710421
0.0002240406367230378
0.0002725358023508554
0.0003287166131116373
0.0003964956871717034
0.0004771808545320128
0.0005715116000611565
0.0006857259072059488
0.0008048045170544457
0.0009261096250670893
0.001007315184239638
0.001008303461931572
0.001009188519960321
0.001010038765497361