/*--------------------------------*- C++ -*----------------------------------*\
| =========                 |                                                 |
| \\      /  F ield         | OpenFOAM: The Open Source CFD Toolbox           |
|  \\    /   O peration     | Version:  v1912                                 |
|   \\  /    A nd           | Website:  www.openfoam.com                      |
|    \\/     M anipulation  |                                                 |
\*---------------------------------------------------------------------------*/
FoamFile
{
    version     2.0;
    format      ascii;
    class       volScalarField;
    location    "0.003";
    object      omega;
}
// * * * * * * * * * * * * * * * * * * * * * * * * * * * * * * * * * * * * * //

dimensions      [0 0 -1 0 0 0 0];


internalField   nonuniform List<scalar> 
16000
(
1720.419305865258
725.3150753459859
351.5640248540989
243.5396808289812
149.7725696051648
111.6387658590379
79.36983802062801
68.07538675544039
57.09889549619629
51.39019534192783
46.33941321781581
41.81759630961581
38.50010217580109
35.35165005435798
32.88665593340068
30.59682025334336
28.66204396921998
26.85153731455484
25.22313359852735
23.72619196020568
22.36465012671028
21.13564921795962
20.0347290323514
19.04714649465726
18.17122248347511
17.38603741382585
16.67922552807832
16.04551708242953
15.46396004732372
14.93475656540027
14.44357275151634
13.99395901410302
13.57541087830145
13.19005598489088
12.83583901214381
12.51041980163011
12.21497203951662
11.94621910206982
11.70504407416575
11.4871508878664
11.2927594197111
11.12113285558278
10.97053697011245
10.83672658838359
10.72026559766134
10.61824232309169
10.52976678360249
10.45325947525308
10.38753832584831
10.3311846005626
10.28306337008109
10.24210087125755
10.20732844913599
10.1778054027908
10.15301576717999
10.1323783885798
10.11540442195946
10.10211549460166
10.09162792037031
10.08434061162929
10.0807924790884
10.07968698878179
10.07825403133727
10.07241544014552
10.05933142120043
10.04083405198211
10.02052243382917
10.00275090128686
9.989300431450252
9.979753898587237
9.976323797287636
9.975486501608883
9.975282874391306
9.975234670801063
9.975224120288143
9.975222094764906
9.975222536445765
9.975235422366596
9.975411303442343
9.977781360877568
1728.954554244357
932.402613295537
409.3619541314096
309.7833198864156
185.7778952209681
140.5354260203846
95.91495196766094
82.42576046453375
66.37900019952806
59.54519973577683
52.87904421942563
47.21225100653103
43.14328623274186
39.13861305904921
36.13251024113613
33.25540387948153
30.91975422468117
28.72920510793328
26.81573236467446
25.0768463291473
23.51656641082309
22.13133710288131
20.89053038417786
19.78903562587601
18.80705070491614
17.93157084570524
17.14849582026104
16.44641861687844
15.80839996149932
15.22923165302048
14.69658900632803
14.2117669151714
13.76282087415324
13.35315754155017
12.97699499957355
12.63390282950965
12.32172467505384
12.03878816085155
11.78525500271067
11.55707855288632
11.35349433985355
11.17396870238763
11.01648484214828
10.87616960680338
10.75465641624449
10.64877121136046
10.55633213625845
10.47677348327729
10.40792853877921
10.34881092004742
10.29816507749001
10.25499703179917
10.2183543084126
10.18734216296534
10.16136703764434
10.13978031796396
10.12203625305134
10.10819252450201
10.09731311761512
10.08949995176021
10.08533421101409
10.08384588984138
10.08241142204631
10.07663195483957
10.06317691903002
10.04372822840761
10.02258983006211
10.00400223697103
9.990017810213633
9.980017487507872
9.976362189298715
9.975490574899899
9.975282818906221
9.975234349246135
9.975223999079516
9.975222123975154
9.975223188124664
9.975241569894386
9.975480551051088
9.978562930876402
1694.800408736944
1101.158569758423
445.1585467880914
362.255441910187
208.9487729184911
166.7747584533284
110.1757005192382
95.37881117293703
74.58117659605105
66.77330959817272
58.59134839193044
51.76829771831814
47.07995328603894
42.17625980588297
38.72788318818939
35.24746977328219
32.5791644581825
30.00543549423843
27.84804594202191
25.89554821669267
24.17480934438932
22.66887017009045
21.32520749527292
20.1501372974887
19.10946871185412
18.18796017243909
17.36748271356593
16.63184907067848
15.96624422270148
15.36246515720308
14.80938557041737
14.30706547767174
13.84291156525173
13.42095689592289
13.03385549382386
12.68204457692012
12.36203874085127
12.0727552042597
11.81377144172985
11.58131181846076
11.37397090715438
11.19124680584736
11.03116206811191
10.88843003421319
10.76517549963774
10.65814863339551
10.56457012668763
10.48438535904922
10.4147633288211
10.35505323543935
10.30374779048703
10.25991879045995
10.2226587826605
10.19118147667715
10.16485574158
10.14301105519906
10.1249932880306
10.11083362458106
10.09971147184145
10.09159238629445
10.08707110429375
10.0853695734617
10.08395457670516
10.07836064086584
10.06486127303844
10.0449456616853
10.02345879816469
10.00449550644907
9.99029097219225
9.980147911693342
9.976378433944943
9.97549027497476
9.975281560925218
9.975233863329599
9.975223879990068
9.97522219354472
9.975224179032883
9.975252497498234
9.97559078186274
9.979385136929777
1659.032993629145
1212.307458816198
475.5212124710997
390.5800467487632
223.1875787164581
189.951430314232
123.2894041706188
107.5079538157538
82.48156981889231
73.64368379166875
64.09661771307466
56.18279388143271
50.89586015618653
45.03585379638626
41.22695388494238
37.11123640348613
34.20586319099492
31.2278882344815
28.92990494744161
26.71013411125054
24.91020587768878
23.24823397579127
21.839584497423
20.57864552930269
19.48342417638529
18.50265282009118
17.63667095489948
16.85631986528249
16.15404051774533
15.51581342526407
14.93475784146882
14.40782228032313
13.92418110135631
13.4861157639163
13.08593172476544
12.72390593525593
12.39548117906067
12.0996144338114
11.83537339295299
11.599095428775
11.3885729217213
11.20306327435291
11.04098472940379
10.89634561379996
10.77175780273168
10.66400171001633
10.56978767317645
10.48971308654255
10.41998420506886
10.36065148972246
10.30954683309313
10.26594349476454
10.22859096603391
10.19680601674193
10.17000268119485
10.14779095165767
10.12962460595575
10.11533208837186
10.10383302593776
10.09526604631984
10.09020392914228
10.08810185711321
10.08630219179502
10.08031572978425
10.06645974133152
10.04570820455585
10.02381370765337
10.00466005584169
9.990348792003031
9.980167398970627
9.976361627196885
9.975481556105619
9.975278649183043
9.975233039889654
9.97522370060225
9.975222256251516
9.975225463622579
9.975266449449229
9.975716521117286
9.980224643578779
1624.474016018005
1294.895250248937
505.2097480323396
409.7039645654413
232.8940371524967
202.4208022596806
130.6355346832277
116.8830311997753
88.79682741946662
79.13376763418725
68.21855285977388
59.57789187162028
53.24055061897061
47.02128508329582
42.61083750167423
38.23920478292576
35.06078205391298
31.84702870057898
29.48152682625748
27.10148161123721
25.27621331024436
23.52642978250896
22.09277902112946
20.78462262666186
19.66490476006641
18.65286023287704
17.76564688891187
16.96087383351495
16.2402256978591
15.58417660392589
14.98975083709443
14.45130966312941
13.95880572958232
13.51352327287353
13.10765846057649
12.74119864398116
12.40921137026422
12.11050078814234
11.84402443170375
11.60608093469478
11.3941613027195
11.20739547701662
11.04454066687062
10.89914267395266
10.77398543137834
10.66583108933804
10.57129049880895
10.49111636696835
10.42126975949515
10.36206067097839
10.31110383302673
10.26785718680073
10.23092423941134
10.19929037656493
10.17237375287197
10.14986095544186
10.13158466217941
10.11735695642582
10.10589514220626
10.0973159264813
10.09235496581313
10.09001244089981
10.08808370452759
10.08183557343017
10.06737480803678
10.04610075435763
10.02385542786345
10.00448156326989
9.990140401336452
9.980012683875936
9.97630928922897
9.97546610588279
9.975274394393393
9.975231986381774
9.975223506792123
9.975222426434122
9.97522765196026
9.975286521082513
9.975872858132131
9.981056496542678
1581.892654185086
1360.283033466391
531.9447654959523
424.4420809138508
240.6082994472856
210.8026632498382
135.3996296429111
122.2629371625005
93.10529640294553
82.78048298207335
70.541130734821
61.75273276323846
54.43282429100669
48.25791963533738
43.31865889766377
38.91741375696814
35.52196426333071
32.24081346503993
29.80506113628933
27.34794113028522
25.52570847344928
23.69834748856576
22.27789580976666
20.91367766366765
19.79252678953849
18.74396154364746
17.84638182548431
17.02037264280132
16.28868456398898
15.62091860728298
15.01866904619991
14.47317073684188
13.97579088471307
13.52671846181644
13.11783118085719
12.74909778518262
12.41531338644355
12.11514116392071
11.84752753379204
11.60877372112747
11.39618524469508
11.2087862857292
11.04565303704126
10.89992172616694
10.77452290075427
10.6662224193186
10.57157046757776
10.49144046309064
10.42155679079648
10.36242608248279
10.31152350232538
10.26845664258474
10.23187974069294
10.20100860983234
10.17497216175742
10.15291127626447
10.13442598730898
10.12014230750477
10.1086386152517
10.0999923698856
10.09483864194127
10.09214745265765
10.08973126947361
10.0828642385899
10.06787898985076
10.04583126794015
10.02309278724973
10.00381202081612
9.989653676639222
9.979719039812876
9.976228589431576
9.975444997433035
9.975269069456992
9.975230759121004
9.975223294863468
9.975222707083924
9.975230828977695
9.975313505301459
9.976061871165316
9.981930648541233
1533.354921020933
1414.688790608158
554.0676427918147
437.257103819139
247.3146197652636
216.8420010052681
138.8722226504687
125.8158268838529
96.01601678558177
84.92034555699912
72.03683327710301
62.97657799737107
55.1340172075246
48.99788359521624
43.7229504146425
39.35216847421749
35.7802240077481
32.4893112802397
29.98617723679985
27.49697721501186
25.65907033689064
23.79286710266961
22.37325182948273
20.97890560453298
19.85562073907958
18.78847405183979
17.88594393165461
17.04928876560716
16.31232695293929
15.63828046115962
15.03200143157874
14.4824894895906
13.98163131987697
13.52947886803545
13.11790696656109
12.7468307960636
12.41104378764596
12.10926885316122
11.84072362314273
11.60192542877848
11.38948834388065
11.20192930830143
11.03988511638871
10.89476319717305
10.76996224396579
10.66238534133578
10.56836365120156
10.4892299578918
10.41986074674161
10.36151052149068
10.3109768693241
10.26831043833532
10.23193079478804
10.20125867954121
10.17555936469662
10.15412232154987
10.13612472576313
10.12192208320224
10.11051668273736
10.10193839197561
10.09690316041019
10.09407601570645
10.09113814416787
10.08346346279772
10.06766010479612
10.04483553646563
10.02185287164601
10.0027841824356
9.988865668348934
9.979310985280462
9.976125961554169
9.97541984233281
9.975263061456111
9.975229466667523
9.975223100991755
9.975223242116869
9.975235624240934
9.975349944737145
9.976286536408107
9.982808807471439
1489.000352939853
1461.523470925889
570.9089863372035
449.0876737886119
252.4074593525221
221.5307399986345
141.8466657279835
128.2411943121092
98.22473006728964
86.35249001338961
73.02531008620261
63.73496479386684
55.5874214634166
49.47179852267755
43.97986197934317
39.63171380066371
35.9383904516858
32.64814468555791
30.092637987396
27.59000383968754
25.73527162644577
23.84679702548027
22.42640420414586
21.01170927485599
19.88907294708723
18.80552553263311
17.90290246289319
17.05306775671883
16.31305435093228
15.62911389945212
15.0163912848586
14.45918532517736
13.95277853665498
13.49690176821569
13.08275137011016
12.71120198551966
12.37637388931866
12.07638774366401
11.81055120762737
11.575252873365
11.36619510894431
11.18113179562048
11.02249302678212
10.88035455023762
10.75778456455516
10.65239379038861
10.56015265584834
10.4828597388738
10.41486484964475
10.35804540187522
10.30848214215849
10.26685914037499
10.23112820087929
10.20098853013992
10.17562778045164
10.15452050476945
10.13716730858013
10.12328602798928
10.11219524223047
10.1038150181568
10.09873337026179
10.09570960200949
10.09221236920818
10.08369055046271
10.06679761579866
10.0431662961582
10.02008878123733
10.00140044183043
9.987883850822136
9.978823195678208
9.976009527288511
9.975392426833087
9.975256760916405
9.975228179764784
9.975222973358566
9.975224103367143
9.975242615537033
9.975398218345845
9.976552351540075
9.98370932371529
1449.90542783799
1504.055554638157
582.5036105490494
458.7351549661261
255.7642605453175
225.4434082161247
144.5474900497572
130.0048985033762
99.95321523150736
87.34827687129356
73.72010628046051
64.27734539080231
55.90069929213534
49.79836415859968
44.10746099525353
39.82452713437927
35.98354810205299
32.74673981414346
30.10857260332257
27.61893756631346
25.74339185508667
23.82864704140171
22.42617141862431
20.96515473153075
19.86782039802852
18.73966117340053
17.85541927637051
16.97294810643123
16.23851068476726
15.5408114936169
14.93099627994502
14.37350331696512
13.87181063614164
13.4219899183535
13.01443919483516
12.64999481384026
12.32222130995285
12.02870324779082
11.76884499015824
11.53892425997994
11.33499852561797
11.15407700580663
10.99939594754113
10.86142539655786
10.74157965545901
10.63909242806154
10.5491541461835
10.47375010165991
10.40757365532106
10.35235997623404
10.30415156608711
10.26393615478856
10.22919342057634
10.19989488673415
10.17518453428988
10.15452585989472
10.1375535841123
10.12430694488371
10.11340016136733
10.10544485103638
10.10038963970274
10.0971086514243
10.09290741754529
10.08328626752656
10.06514560538625
10.04077351853814
10.01782005586648
9.999627233154646
9.986767223951567
9.978294007082994
9.975887650374933
9.975364500579216
9.975250514665388
9.975226957396639
9.975222926479315
9.975225471828921
9.975252740321524
9.975461623222365
9.97686368218881
9.984624098323808
1414.295304692238
1543.05802206168
589.3342770481772
465.6263351628965
257.5465481700081
227.8771631607532
146.8751176217933
131.320303595649
101.3833331498769
88.05915137599376
74.11323899370456
64.6423557421401
55.96933822696283
49.98036911894983
43.96058889817709
39.89603296438158
35.73111940979157
32.72516119063839
29.86326075328707
27.48444007195081
25.54483796478294
23.62632944264927
22.26153883987804
20.75555103485479
19.70892589447945
18.54435309614451
17.70227636558571
16.80362053076817
16.0997748271684
15.40406341050313
14.81383087008422
14.26726652567708
13.77785191393632
13.33946065476551
12.94047406767189
12.58494410635544
12.26402843125102
11.97723627453693
11.72294077252368
11.49818779897288
11.29960635301502
11.12329480053294
10.97276858286692
10.83928771294755
10.72231085067702
10.62322847544069
10.53613456678867
10.46282991101145
10.39883559425352
10.34508025821005
10.29847369737054
10.25980374236281
10.22630983510027
10.19802696153785
10.17412978689993
10.1540982894292
10.13762258203424
10.12485690457987
10.11439818578605
10.10694866638029
10.10191766009215
10.09832618167594
10.0932479699471
10.08223549177149
10.06270682536461
10.03764604720765
10.01509328332746
9.997685060713202
9.985395102969768
9.977760642470038
9.975767937385863
9.975337605377369
9.975244647025603
9.975225858273626
9.975222994268844
9.975227629279214
9.975267273700419
9.975543984434527
9.977225306017699
9.985552215574554
1383.823773347541
1577.801460125873
592.1107026974579
469.6886039658158
258.0245795904893
228.4866370399271
148.7565620412662
131.8082691692896
102.4232599607804
88.3213874154988
74.11472728699199
64.70566205964938
55.51953751122822
49.89610818457432
43.28249674549777
39.70013630314801
35.08025057393981
32.43302939006523
29.32549262374177
27.18834078552943
25.12111319226018
23.35157941202221
21.94381120639521
20.50021048626521
19.47262975146827
18.32073352917271
17.52407394970498
16.61838867904324
15.95502775301661
15.2575183882838
14.69042914875165
14.1488151484159
13.67109676641426
13.2419418431917
12.8510658571702
12.50548876521799
12.19218585312487
11.91595571858642
11.6680948274743
11.44950621513885
11.25733710382691
11.08724007513717
10.9420251777569
10.81367983106884
10.69998724946826
10.60450615405052
10.52110186499324
10.45038460326552
10.38901246741218
10.33657276453695
10.2917401971196
10.25456138430357
10.22260493318933
10.19549792504008
10.17255057986615
10.15324771135457
10.13742036267506
10.12506872275188
10.11522047479215
10.10814410258529
10.10315986594119
10.0992150831601
10.09314661919731
10.08048849562831
10.05949110167839
10.0340100532154
10.01208414747261
9.995467546761901
9.98399663506116
9.977254710322573
9.975656529895602
9.975312947766884
9.975239396281566
9.975224947134867
9.975223317453441
9.975231046306307
9.975287923159255
9.975649819092494
9.977642067530052
9.986489832888706
1357.357433111559
1607.612444262664
591.5527901376058
470.9676697410271
257.1609792991807
226.0346445015446
150.1562346606495
130.8188300752489
102.7183348957829
88.03113081062267
73.28864528064716
64.18816816379757
54.52420949429619
49.24999399147692
42.49517469847268
39.1209691785531
34.42956260778593
32.01676141355311
28.77222674210572
26.92506361430628
24.66257936959838
23.13667672561506
21.60084608394894
20.28130915029183
19.22039542082139
18.10309088106861
17.32892184522468
16.41576399545469
15.78817546536583
15.08220697881954
14.54198577770684
14.00214125340706
13.54211657203993
13.12340094639153
12.74541186732655
12.41338054834021
12.10971381684278
11.84278904245893
11.60373927553959
11.39306319188887
11.20835950019761
11.04735238112957
10.90842179486848
10.7859974878729
10.67613554434148
10.58365268764538
10.5044184086395
10.4366052283223
10.37842593535225
10.3275502457819
10.28447638763006
10.24850164279861
10.218243717433
10.19241615427861
10.17049087822655
10.15207426658843
10.13694913169291
10.12509587866725
10.11587095825011
10.10913485229393
10.10413025636494
10.09972350062802
10.09233566883555
10.07800455888203
10.05529510537061
10.02972400100056
10.00871983879735
9.993188879075893
9.982433459045302
9.976800309562066
9.97555770241623
9.975291332808332
9.975234935531873
9.975224237632405
9.975224016991987
9.975236270833095
9.975316803668209
9.975784268940599
9.978118259739581
9.987432224970487
1334.507664443385
1632.402745735969
585.1899972350456
467.8785085823895
255.0421893288027
221.040883720502
151.0853951394517
128.5653008414661
102.0245085229724
86.85270662140633
71.95779738461722
63.13999793507765
53.68232074456892
48.33946254231765
41.86578046351649
38.43645220477691
33.90907785900463
31.56502660566369
28.25788966008256
26.5819594200297
24.17536828511859
22.83983742073687
21.17797149117117
20.00292357418459
18.87375762245936
17.83401104553212
17.05554173769572
16.16444730795601
15.57204061452879
14.86887692767142
14.36583974781169
13.83178761090582
13.39804616296517
12.99085041465045
12.62920036290642
12.31166566554582
12.02065463874626
11.76826022953163
11.53746996117562
11.33554260887377
11.15775167316255
11.00215718804539
10.87041240037361
10.75516629912597
10.65160685657846
10.56198122819973
10.4864180842672
10.42126765530553
10.36685226558862
10.31846275714819
10.27704966645508
10.24205260045434
10.21351450857338
10.18900725256305
10.1680459843883
10.15061100595306
10.13628030408268
10.12499009973612
10.11640764711214
10.10991679346459
10.10485566046731
10.09977158813734
10.09091336654617
10.07458113163136
10.05051813367513
10.02512990189535
10.00522919658855
9.990809946244253
9.980789760130035
9.97641199889914
9.975473760122348
9.975273171332288
9.975231334150491
9.975223779099897
9.975225308127305
9.975244173248687
9.975356718635034
9.975953275700926
9.978657584000361
9.988373379995357
1315.60426342168
1652.387977944079
577.7526563766562
459.9765781401442
253.5348955051771
217.8204545454077
151.5579073924292
126.5704876928775
100.5367983244393
85.53328232956127
70.88479293970916
62.11793535428932
52.82606585239333
47.47097679666609
41.09531820374529
37.69023331960009
33.21341704350744
30.87090229323628
27.66315058705581
26.0093680221932
23.63190986655588
22.41003481726964
20.67847240217429
19.67160520964352
18.45679583508456
17.55362252459195
16.73651612872894
15.91407806272263
15.33716246461168
14.65435491708551
14.18608883953158
13.65871964762591
13.2528967972412
12.85482055163693
12.51104350540398
12.20585510840007
11.92575367565294
11.6849160042175
11.46640960656384
11.27455534939782
11.10587635442332
10.95826609838286
10.83115824791064
10.72290201097935
10.62443723677385
10.53961823342897
10.46807824593068
10.40478196058
10.35417688872082
10.30911191163993
10.26945978226813
10.23552900502843
10.208547366313
10.1855402072905
10.16542704039298
10.14886079592525
10.13539828590696
10.12480024139272
10.11674255229532
10.11045236504705
10.10535020163368
10.0992968520395
10.08857754518088
10.07022693448745
10.04491045140156
10.02023822951204
10.00165970994609
9.988411404496105
9.979331447528914
9.976093977014253
9.975405296008947
9.975258520605268
9.975228552489352
9.975223608212756
9.975227520881175
9.975255990911638
9.975411204263528
9.976163315495263
9.97926269445699
9.9893060397802
1299.695940013192
1667.305237400099
571.9503893470207
451.0822806229817
252.3695386090965
212.7217887002771
151.1215524575416
124.6802537837559
99.32375931752647
84.16618165606663
69.51149632248659
60.98585130223049
51.5331662011089
46.42351957737977
40.03830931378535
36.74697119218327
32.3678653984409
30.09554554216144
27.00105859072
25.37105326226586
23.1055047615738
21.92903779742277
20.20630429259379
19.3199833109627
18.03789852669999
17.27917988231155
16.38701169073162
15.66871768336781
15.07094924600247
14.43211930730015
13.98428812923711
13.47102777694647
13.09360314132874
12.70654799227105
12.38394191525225
12.09263045445953
11.82745140354971
11.60061818322514
11.39164694349644
11.21187028073169
11.05102809998123
10.91225407100834
10.79119788971143
10.68910247275579
10.59839543088306
10.51783666912668
10.4491277782107
10.38808070040856
10.3408469558973
10.29929651223693
10.26178977976147
10.229036067372
10.20311865660088
10.18183950321848
10.16272490906808
10.14697704347372
10.13439405816935
10.12454818017112
10.11696034105349
10.11080601863455
10.10537089810347
10.09813453415135
10.08552454939619
10.06477214870618
10.03876513989254
10.01523212066911
9.998101869553137
9.986085986580127
9.978167092306162
9.975843599946288
9.975351547556206
9.97524717513955
9.975226556814762
9.97522388825751
9.975231102350403
9.975273352839681
9.975484532259406
9.976421089979011
9.979934447322101
9.990221841849895
1286.672139700846
1676.519943208045
564.6001658919484
440.0543190875713
251.7045875517934
207.9397477893019
148.88010375876
122.3566886860831
97.65921758770139
82.26826077690512
67.68220598757709
59.51354240010038
50.04143367824064
45.19385646375552
38.97242817565383
35.76275335949504
31.5275905190044
29.32961362359496
26.30862289974703
24.74507400675066
22.54941643780126
21.39183748209263
19.74639580172352
18.89244039044232
17.61780486703953
16.96151470365791
16.01877947501886
15.42033884063506
14.77816263723282
14.21568991943962
13.76910308258336
13.28768450865938
12.93311211618517
12.56151930231614
12.26002457103134
11.98174069071448
11.72948113430738
11.51539416358041
11.31761086777374
11.14962160435627
10.99809941324106
10.86776954262563
10.75127827366259
10.65411199355494
10.56972487904679
10.49515066656859
10.43241081036837
10.37340618633625
10.32629230766902
10.28840044123334
10.25443392195467
10.22306729305763
10.19799732005097
10.17783296869813
10.16017084133435
10.14504792798255
10.13341037225701
10.12426746623995
10.11702266127946
10.11093127022974
10.10489877420355
10.09619118464247
10.08138152570015
10.05845885827051
10.03227324656306
10.01029785635987
9.994636080194747
9.983847311581977
9.977274408457712
9.975653683738212
9.975310874983146
9.975238806123489
9.975225202655762
9.975224785258757
9.975236767160816
9.975298411988224
9.975581722807924
9.976733225898093
9.980671638427863
9.991111429770799
1276.188862541822
1678.402184193067
556.4076887337657
428.4574491745518
251.2896674575686
203.3732348304247
147.6318127104897
119.2839151476553
95.23227059150439
80.18824331382011
65.74362273883506
57.89010544812415
48.67437291553534
43.88258336527397
37.8453782380319
34.71594494244654
30.60183830684364
28.46922910485385
25.55305984743977
24.03680246577077
21.91390643179535
20.81360963606509
19.24185589635613
18.41102642810753
17.21918349028523
16.59945222718805
15.65491655458765
15.16051531543538
14.47283253706153
14.00728569396388
13.53852584483279
13.1091838574206
12.76308800246289
12.41496098603991
12.13224015807529
11.87047654251499
11.63335459471785
11.43269868567457
11.24311913087257
11.08763443192601
10.94280682152873
10.82489627164426
10.71345565705461
10.62213901422625
10.54163483329533
10.46985429170764
10.413083103965
10.36022896763545
10.3142893891894
10.27767291415899
10.2461996245136
10.21721213882827
10.19364284802836
10.17345838744184
10.15790950335585
10.14297326478446
10.13239800904731
10.123959066383
10.11696822226338
10.11079417544974
10.10388276843519
10.09341510916495
10.07605688587329
10.05141096100288
10.02567884272893
10.00555048990408
9.991336213181393
9.981711100675543
9.976617150102607
9.975514478839434
9.975281165064658
9.975232958825863
9.975224454484552
9.97522660173372
9.975245467048977
9.975333911578128
9.975708433360598
9.977105589285179
9.98147002411924
9.991964764715789
1268.184047440979
1663.860300319185
549.667802920742
417.3607493184008
250.6468719902094
198.0048202099739
145.0729181418143
116.4329329002535
92.5687339657275
78.11925849615102
63.7494969543588
56.09150109369061
47.08129528408017
42.4082561006952
36.56366364884718
33.55105403261383
29.584623008042
27.52884535908444
24.74613099928118
23.29725216496687
21.28034518782382
20.22988755240021
18.72394571559531
17.94333704826049
16.81186319972308
16.21497002847955
15.3361997836121
14.88220730002739
14.18616571007922
13.80260136473172
13.30368392752464
12.94354493108135
12.58873516537976
12.27580963864209
12.00310867332103
11.76008639208876
11.53725134401872
11.3512053527586
11.17215124819007
11.03137710600164
10.88993909971494
10.78095371982289
10.67388744895777
10.59055703677123
10.51696098221368
10.44994043876556
10.39169596795553
10.34564911822464
10.30292267394953
10.26825158534582
10.2384538767591
10.21047576844811
10.18953627962775
10.16937079885781
10.15549500153976
10.14127722544116
10.13147552337058
10.12354477461114
10.11664018611041
10.1101402733997
10.1021496568901
10.0897467803841
10.06966424103153
10.04391223396258
10.01918417537331
10.00102161121132
9.988316388591407
9.979630335629194
9.976152527552825
9.975415605342906
9.975260212375176
9.97522907444386
9.975224302255391
9.975229659912037
9.975258527746535
9.975383213467405
9.975870549451427
9.977542486968272
9.982321939655002
9.992771440709904
1262.117815823208
1638.383842450277
542.948349051273
403.8290186539971
248.3157478665223
192.684600741573
142.5620219069509
113.0366113520937
89.52396245178579
75.52463425404331
61.39840416366354
54.02287920399395
45.31190711949561
40.83328902585145
35.2175327935315
32.3150946784649
28.54357461037555
26.58647748415715
23.92799121528419
22.55072694719238
20.63396050367223
19.63733753377782
18.22200105966945
17.48138771644075
16.39491091234584
15.83338730351169
15.01195208944808
14.5760531325137
13.92381881222479
13.59197306536621
13.0784127916503
12.78852275609695
12.41562062143195
12.15020984321147
11.87616934136247
11.65671150057624
11.44535098090001
11.27213086049127
11.10226659599169
10.9724959879633
10.83924407080431
10.74157539483208
10.63878993387343
10.56001548871538
10.48932258465948
10.42954472071233
10.37583180384017
10.33128680700584
10.292318456032
10.25836816448061
10.23084830272617
10.20597527488184
10.18418818441862
10.16694936995912
10.15245396854036
10.13970117080714
10.13074960567509
10.12299742379919
10.11611834240304
10.1090692861206
10.09965561724648
10.08493752689976
10.06240282683752
10.03621190667746
10.01302581809569
9.996826976519731
9.985606654237877
9.978135873077322
9.975832250184132
9.975347449721774
9.975245991129688
9.975226679934925
9.97522494174315
9.975234550710162
9.97527767138182
9.975450070588415
9.976073578262724
9.978045376295894
9.983215758865736
9.993521604593694
1257.585868956991
1587.708819014551
538.0332134619584
391.2938384944077
245.1937257850201
186.5293317500595
138.3334323159416
109.1438436527896
85.94951770954553
72.57400360306755
58.93745265354963
51.81531563393578
43.48940097054075
39.18438709880277
33.82728538465182
31.05868041285772
27.45861541093408
25.60090181415637
23.09360275494209
21.78972541645806
19.97711525637029
19.03968891484688
17.70135649366516
17.00727533438586
16.00351820454073
15.47880864388889
14.69461680287274
14.28810750973291
13.68418483669575
13.36627478178023
12.88081767351287
12.63145862956434
12.25113025844524
12.03483576642814
11.75231415647215
11.56172952537305
11.35689720566846
11.19860913727372
11.04036730285443
10.91780640939188
10.78970525259724
10.70243221143294
10.60480111357786
10.53388702345935
10.46572535631119
10.40901018878708
10.36067412034109
10.31671840058037
10.28128125458489
10.25076965611652
10.22183459217921
10.20043371808657
10.1803600824616
10.16373037058033
10.15009480915095
10.13818542884811
10.13002258679056
10.12233707783598
10.11538486141458
10.10749056922528
10.0964670047112
10.07899835979661
10.05460021922028
10.02865292841023
10.00741246140972
9.993038022961208
9.983193374137658
9.977120712330413
9.975617120221779
9.975301744396416
9.975236856790504
9.975225293034924
9.97522664973844
9.975242072360645
9.975304889548719
9.975538451808129
9.976322113629436
9.978612326852218
9.984136055411822
9.994206547387547
1254.180714953216
1548.984137532816
534.9475645219094
377.1975840226668
242.0399617794412
179.7581199009292
133.6611978078432
104.744903457985
82.24575536183784
69.39144284670222
56.28590728599999
49.47904781365011
41.52568909049278
37.42646278316295
32.35141131297657
29.73479830620284
26.34537927403075
24.59662604212046
22.25005767127704
21.03683930281269
19.34349193220773
18.46252792663599
17.20815739454768
16.558480661579
15.61323611688726
15.12217598491789
14.39790201541893
14.02066339979236