/*--------------------------------*- C++ -*----------------------------------*\
| =========                 |                                                 |
| \\      /  F ield         | OpenFOAM: The Open Source CFD Toolbox           |
|  \\    /   O peration     | Version:  v1912                                 |
|   \\  /    A nd           | Website:  www.openfoam.com                      |
|    \\/     M anipulation  |                                                 |
\*---------------------------------------------------------------------------*/
FoamFile
{
    version     2.0;
    format      ascii;
    class       volScalarField;
    location    "0.003";
    object      p;
}
// * * * * * * * * * * * * * * * * * * * * * * * * * * * * * * * * * * * * * //

dimensions      [1 -1 -2 0 0 0 0];


internalField   nonuniform List<scalar> 
16000
(
98424.9908257605
98462.53976186739
98464.36334994872
98499.60466904096
98509.0877812142
98539.51002568461
98556.82563079141
98584.0079081282
98606.84048920262
98633.38276017469
98659.54755624988
98687.22085875996
98715.65939481866
98745.12810029976
98775.55525901981
98806.96689306549
98839.35894940086
98872.72873129649
98907.06955847458
98942.37067798772
98978.61814801079
99015.79478963648
99053.88040618711
99092.852116514
99132.68519442886
99173.35372964575
99214.83042898704
99257.08757749973
99300.09660413122
99343.82986390092
99388.26034060653
99433.36453520985
99479.12278596622
99525.52335901535
99572.56359832159
99620.25519764153
99668.62655694925
99717.72991896739
99767.64553861182
99818.49005017747
99870.42087635006
99923.64234268985
99978.40407993687
100034.9989047639
100093.755464742
100155.0302335185
100219.1959860955
100286.6394590851
100357.7817738361
100433.1110591465
100513.2332238032
100598.9347875876
100691.2451995205
100791.5609122505
100901.8323010059
101024.8602900994
101164.9594515867
101329.5900417411
101532.8859649458
101797.6991762636
102143.3463679623
102545.3204142138
102879.140415578
102939.0665072667
102596.4809455742
101938.0923937251
101212.8576120045
100638.7798139423
100285.2302071515
100108.790244502
100035.6906791347
100010.1342044399
100002.5042114123
100000.5411307941
100000.1027029806
100000.01718862
100000.0025459672
100000.0003348242
100000.0000392417
100000.0000045014
98477.84276119781
98518.72884770737
98520.20794621865
98558.68693693569
98568.38246428847
98601.65388929391
98619.88898074506
98649.43356156952
98673.82537693637
98702.41590220651
98730.48598710117
98760.15949954583
98790.61661179039
98822.14388634688
98854.65705383508
98888.17350318252
98922.68005693419
98958.16482609742
98994.61183201861
99032.00153328988
99070.31160043844
99109.51655109281
99149.58793476243
99190.49429215163
99232.20141051251
99274.6726815186
99317.86961082893
99361.752652946
99406.28188300955
99451.41837759256
99497.12530737059
99543.36986459246
99590.12516808508
99637.37277208533
99685.10559995697
99733.3311787915
99782.0758335562
99831.38879879138
99881.3477703157
99932.06361041017
99983.68625633561
100036.4081807032
100090.4673130937
100146.1445499325
100203.7602211905
100263.665010048
100326.2336401221
100391.8614906421
100460.9781041327
100534.0759885483
100611.7633614178
100694.8246865905
100784.3031279585
100881.6030032843
100988.6344867609
101108.108138208
101244.1438930496
101403.7300007674
101599.8743217354
101854.6669052203
102190.6981237476
102591.9067268978
102940.9868581365
103025.0050387102
102694.741857166
102025.0663562075
101272.5350991878
100670.8229682642
100298.7986967967
100113.2945785045
100036.8177944752
100010.3164103442
100002.5055139251
100000.5298712964
100000.0979854537
100000.0159036522
100000.0022732287
100000.0002869721
100000.000032097
100000.0000034825
98537.49091682374
98581.90839951132
98583.09072579449
98625.26902637181
98635.07912228166
98671.62909163661
98690.8159031714
98722.98668897657
98749.1122660674
98779.93470583024
98810.11573566411
98841.97746621197
98874.65115808196
98908.41643030365
98943.18583842306
98978.96624808731
99015.73624627691
99053.47457758007
99092.15525495283
99131.74836680401
99172.22035747659
99213.53401659142
99255.64841589071
99298.51919073732
99342.09866751342
99386.33664352608
99431.18088280784
99476.57857920042
99522.47709888183
99568.82608217276
99615.57850456193
99662.69330577308
99710.13691302811
99757.88639325829
99805.93161251523
99854.27904290467
99902.95478454263
99952.00920784731
100001.520962845
100051.6022080993
100102.4028491099
100154.1150387722
100206.9752496872
100261.2645226482
100317.3048434185
100375.4532786784
100436.0956485047
100499.6448305767
100566.550283748
100637.3242230573
100712.5883459306
100793.1370775919
100880.0207279214
100974.6427094644
101078.9014218429
101195.4649284291
101328.3235406992
101484.031760369
101674.622694299
101921.4533457345
102248.9075908849
102646.5735475094
103002.4347793189
103098.3501148221
102771.392225292
102088.9604489148
101313.6638649651
100691.1250398951
100306.3653865264
100115.2775623991
100037.06876115
100010.2470059127
100002.4475846051
100000.5074419181
100000.0916846982
100000.0144893865
100000.0020093753
100000.0002452183
100000.0000264154
100000.0000027459
98603.13986039151
98651.38528282254
98652.27698164247
98698.47251441437
98708.46130033494
98748.56262812616
98768.8897223894
98803.86408061154
98831.98667814578
98865.20489080525
98897.73376781463
98931.97687681914
98967.07147471081
99003.26711941569
99040.47767361936
99078.6961833481
99117.89131843015
99158.03001547155
99199.0737619469
99240.97923044968
99283.69857113632
99327.17946039536
99371.36530423009
99416.19564964612
99461.60671204046
99507.53239475936
99553.90524160577
99600.65816005801
99647.72569749563
99695.0463478234
99742.56410533118
99790.23118063435
99838.00987007395
99885.87561377569
99933.81924925424
99981.85051212895
100030.0009051689
100078.3278199963
100126.9181337509
100175.892771839
100225.4104643223
100275.6718100247
100326.9214144081
100379.4488686307
100433.5863149115
100489.704200522
100548.2059257745
100609.5265110238
100674.1405252282
100742.5852726583
100815.5024282562
100893.6987422183
100978.2258178049
101070.4822841113
101172.3642012208
101286.5289995569
101416.8910716982
101569.6999201869
101756.2675746516
101997.1897850332
102317.4099955555
102709.5500327253
103064.4578849432
103160.5741585558
102827.2312882836
102129.1195265926
101335.1188692144
100698.8482149289
100307.5039772476
100114.5828081979
100036.4007365995
100009.9166983798
100002.3285327071
100000.4733390576
100000.0836276688
100000.0128873508
100000.0017378295
100000.0002056414
100000.0000214202
100000.0000021449
98674.03230820753
98726.70736046956
98727.33261191944
98778.0830590207
98788.34382861185
98832.32441006004
98854.05152276748
98891.99587746566
98922.43556331565
98958.21781618346
98993.35288894517
99030.18807262798
99067.9214091319
99106.75356891126
99146.60102252859
99187.43989768614
99229.22599614442
99271.91127313249
99315.44129725994
99359.75591815719
99404.78950543744
99450.47137831167
99496.72619941324
99543.47485158478
99590.63530600026
99638.12411926352
99685.85782776694
99733.75506194335
99781.73832515776
99829.73654642059
99877.68711944025
99925.53869112143
99973.25337828227
100020.8096758239
100068.2048425987
100115.4579865638
100162.6127998295
100209.7409976481
100256.9455202085
100304.3641823244
100352.1728617889
100400.588678104
100449.8719392566
100500.3271486643
100552.3016011045
100606.1824377863
100662.3927503095
100721.3907999473
100783.6770747724
100849.8148524303
100920.4680060599
100996.4581260774
101078.8428676121
101169.0226192072
101268.8976248684
101381.1285618885
101509.5951845581
101660.3600679393
101844.2171711344
102080.9794415721
102395.2151397808
102780.2714147391
103127.3343774949
103212.3661324327
102862.3876628604
102145.0843382992
101336.4258065431
100693.7803255378
100302.2061162085
100111.2651887074
100034.8568427438
100009.3455579969
100002.1551012216
100000.4292930837
100000.0741551604
100000.0111468348
100000.0014627337
100000.000168044
100000.000016955
100000.0000016393
98751.53898091314
98808.87480757352
98809.19704368073
98864.72960721693
98875.40584484032
98923.4103527765
98946.87005759787
98987.87844908109
99021.00199642657
99059.52815085187
99097.5520927379
99137.2229462113
99177.84013851297
99219.542112133
99262.24459188766
99305.90304890869
99350.45628528313
99395.83722899204
99441.9716212083
99488.77857739138
99536.17116252659
99584.05705828297
99632.33949315092
99680.91849006691
99729.69237907477
99778.55970204626
99827.42124313232
99876.18249990174
99924.75607013378
99973.06440903303
100021.042330856
100068.639842981
100115.8246027497
100162.5846178957
100208.9305950037
100254.8985223155
100300.5520652265
100345.9852329347
100391.3249642988
100436.7337767416
100482.4121258193
100528.6005133077
100575.5808356279
100623.6770751714
100673.2545563514
100724.7182263247
100778.5104482907
100835.1113194614
100895.0455908705
100958.9014507557
101027.365646209
101101.2783299225
101181.7113658364
101270.0776358151
101368.2912924334
101479.0251041582
101606.1437816565
101755.588787818
101937.7773633022
102171.7834337796
102481.1373885753
102857.846531864
103190.6571646229
103253.4314180193
102876.4028560431
102136.5033960166
101317.6062308729
100676.2110076775
100290.7894043057
100105.5371077591
100032.5402958518
100008.5723984342
100001.9389288841
100000.3781276542
100000.0638227805
100000.0093555927
100000.0011948027
100000.0001333218
100000.00001304
100000.0000012191
98834.60525272838
98897.41669281035
98897.43073959343
98958.43636594717
98969.80871668203
99022.17653905785
99047.9048068728
99092.16443552854
99128.47391777855
99170.02196817337
99211.28801010452
99254.1077405359
99297.90408036712
99342.74961223225
99388.55413583294
99435.24963269822
99482.75364182294
99530.97603195182
99579.81853159275
99629.17559905176
99678.93534057717
99728.98074271034
99779.19119820856
99829.4443715127
99879.61837168882
99929.59427075037
99979.25876439092
100028.5071098506
100077.2460030908
100125.3965823288
100172.8972609646
100219.7064939449
100265.8052615584
100311.1994214042
100355.9217417078
100400.0338135441
100443.6278212311
100486.82829363
100529.7938329136
100572.7186792939
100615.8340521172
100659.4091229566
100703.7515503247
100749.2077195285
100796.162438983
100845.0384102818
100896.2958428434
100950.4343374755
101008.0004094907
101069.6054661325
101135.959336201
101207.923898217
101286.5915919282
101373.3957166661
101470.2704286919
101579.9017804563
101706.1406972717
101854.8421307248
102036.1758340009
102268.5948213664
102574.0608110168
102941.1629678351
103253.2277716837
103282.4449300597
102868.2604814116
102103.1654672617
101279.2066016755
100646.9305483925
100273.8778219379
100097.7488648432
100029.6022745756
100007.6491927777
100001.6945144254
100000.3231531533
100000.0532494255
100000.007607473
100000.0009452525
100000.0001024465
100000.0000097163
100000.0000008789
98924.40256241031
98993.51647433899
98993.22328203685
99060.33490404018
99072.89286096922
99129.85365496253
99158.53137015301
99206.20119566977
99246.23768672385
99291.12992670314
99336.00605033459
99382.31695754554
99429.60699250261
99477.88433612337
99527.0448756251
99576.99268254254
99627.61842052524
99678.80353713463
99730.42070845651
99782.33515345334
99834.40622646202
99886.48933883419
99938.43827349228
99990.10783985104
100041.3568221191
100092.051179411
100142.0673524364
100191.2956488875
100239.6435066152
100287.0386267163
100333.4318596513
100378.7997325936
100423.1466128485
100466.506457464
100508.9441752247
100550.5566260636
100591.4734584498
100631.8577737743
100671.9067940466
100711.85228079
100751.9607876666
100792.5335526603
100833.9062313682
100876.4487537582
100920.5654653712
100966.6958354558
101015.3159972456
101066.9425075073
101122.1410255892
101181.5442520343
101245.8846096491
101316.0469184344
101393.1462704525
101478.6372494744
101574.471073902
101683.3394596975
101809.0761023883
101957.4916036608
102138.6668879966
102370.5716126572
102672.9849408886
103028.8037217995
103312.9450421678
103297.1086476326
102836.5064961158
102045.1226444926
101222.3485568435
100607.2166653789
100252.3665179518
100088.3604139479
100026.2270055378
100006.6351535492
100001.4373557975
100000.2676914813
100000.0430166946
100000.0059844747
100000.0007230315
100000.0000760851
100000.0000069964
100000.0000006124
99022.96575335931
99098.72488452484
99098.69589892139
99171.99625064549
99186.40795649619
99247.98934535918
99280.38869063141
99331.608648352
99375.91532600606
99424.53026897987
99473.40143379447
99523.57542171162
99574.69334839623
99626.7011380021
99679.47007271337
99732.86980168955
99786.75694168969
99840.97807302672
99895.37110217643
99949.76731648376
100003.9938580293
100057.8765965518
100111.2434143065
100163.9277648821
100215.7724881693
100266.6336925979
100316.3846292181
100364.9193795855
100412.1562637304
100458.0408164093
100502.5483455884
100545.6858592351
100587.4934745932
100628.045195873
100667.4492161155
100705.8477203002
100743.4165222242
100780.3644992718
100816.9330871423
100853.3955633834
100890.0562729804
100927.2496240736
100965.3392335381
101004.7176513496
101045.807151172
101089.0618257826
101134.9711495451
101184.0657590807
101236.9275466135
101294.2079074809
101356.6597538792
101425.1888046074
101500.9294881774
101585.3514767537
101680.4137826581
101788.8058480358
101914.3547612357
102062.9026716306
102244.6254488304
102477.0596435954
102776.9172064906
103118.8388694
103366.7562362833
103294.2778378816
102779.5053986067
101962.8890022926
101148.7986253794
100558.8033087194
100227.3689570053
100077.9047802904
100022.6146390866
100005.5906869286
100001.1822753273
100000.2147054187
100000.0336029277
100000.0045473007
100000.0005337288
100000.0000544947
100000.0000048561
100000.0000004113
99130.57663321267
99213.85917816748
99214.52683892402
99294.57988725604
99311.58693171592
99377.9982946435
99415.03635235211
99470.08980978062
99519.25877068084
99572.084514034
99625.38738824024
99679.83900596996
99735.14200499994
99791.18162822969
99847.79346247388
99904.80501458187
99962.0310157839
100019.2763618439
100076.3386106009
100133.0111913163
100189.08703038
100244.3626441707
100298.6425311139
100351.7437548137
100403.5005507344
100453.7687874213
100502.4301260568
100549.3956922186
100594.6091654833
100638.0491293799
100679.7307546623
100719.7066076985
100758.0667855308
100794.9382986675
100830.4839433551
100864.9006721065
100898.4178683306
100931.2955099881
100963.8225407384
100996.3151489198
101029.1151740873
101062.588535051
101097.1241609038
101133.1339817726
101171.0546964629
101211.3514609375
101254.5235233834
101301.1119754099
101351.7111745564
101406.9871883624
101467.7088525924
101534.7970387814
101609.3978261866
101692.986658476
101787.5228224478
101895.6973715611
102021.3685866412
102170.5208652529
102353.588540354
102587.5168454092
102884.6697980518
103208.6356097396
103410.6427982528
103270.198676667
102695.7650012219
101857.6709402615
101060.9816218377
100503.804452131
100200.1381900606
100066.9427771185
100018.9624925414
100004.5715383863
100000.9419944002
100000.1665290795
100000.0253446989
100000.0033315705
100000.0003794151
100000.0000375462
100000.0000032393
100000.0000002653
99248.47077834742
99340.4112810791
99342.24488552842
99429.7538195737
99450.27950496128
99521.73472528826
99564.44975075709
99623.74317211533
99678.37349228952
99735.97534785708
99794.18053135666
99853.34184662852
99913.18386811469
99973.5284451051
100034.1629185854
100094.8631993651
100155.3935796504
100215.5105678188
100274.9669127958
100333.5163384413
100390.9186525895
100446.9452214176
100501.3845334149
100554.0476812757
100604.7735300787
100653.4333436863
100699.9347074463
100744.224560825
100786.2912694985
100826.1656583399
100863.9211167063
100899.6726718706
100933.5753306353
100965.8216848451
100996.6391096629
101026.2866102808
101055.0517777937
101083.2478177758
101111.2110253028
101139.2983898068
101167.8855632595
101197.3651458688
101228.1459205821
101260.6535730982
101295.3338050058
101332.6577962239
101373.1298627182
101417.2968900512
101465.7606908722
101519.1962258792
101578.3813271418
101644.2437836628
101717.9324870144
101800.9220296889
101895.1740471046
102003.4040793372
102129.5664642978
102279.9118281655
102465.2115485237
102701.3511975252
102994.6188359232
103294.6816031528
103439.7060866353
103220.8572292514
102584.373529316
101731.5641351814
100961.9587346526
100444.5984662519
100171.9759786946
100056.0156383175
100015.4480110144
100003.6240421408
100000.7261515255
100000.1247232648
100000.0184251641
100000.0023485565
100000.0002590857
100000.0000248098
100000.0000020691
100000.0000001635
99378.79780873127
99480.53227291553
99483.97996972656
99579.53348651006
99604.7481597903
99681.4061366659
99730.90946391803
99795.00709304113
99855.70106659767
99918.70089062654
99982.30220247593
100046.5979587177
100111.2956100578
100176.1455338206
100240.8730626934
100305.1921036594
100368.8084494454
100431.4253516357
100492.7494941534
100552.4976331457
100610.4033514315
100666.2239181185
100719.7467658527
100770.7954495976
100819.234707271
100864.9744845192
100907.9726967746
100948.2366883207
100985.823318953
101020.8378576207
101053.4316995367
101083.7991796322
101112.1737237835
101138.8234964249
101164.0469384211
101188.1682677092
101211.5334223548
101234.5063635133
101257.4660999012
101280.8040949024
101304.9223407177
101330.2320268018
101357.153605143
101386.1187382954
101417.5750847248
101451.9936021924
101489.8780010105
101531.7753584875
101578.2888558667
101630.095314549
101687.9735540122
101752.850081609
101825.8705408989
101908.5094092646
102002.7457588011
102111.3603016831
102238.4839175574
102390.7384526189
102579.1586002189
102817.7163757963
103104.4566486757
103372.4670530975
103448.3763597349
103142.4913941057
102445.4574553721
101587.7063279391
100855.3327588344
100383.6865013888
100144.1339954701
100045.6034321027
100012.2151944379
100002.7820776558
100000.5408427413
100000.0900537244
100000.0128844901
100000.0015889923
100000.000169423
100000.0000156642
100000.0000012599
100000.000000096
99523.03771416837
99636.04709005356
99641.56624535831
99745.9341010317
99777.32233173701
99859.5028668234
99916.96859415968
99986.66473240301
100054.0672236075
100123.1290294426
100192.6233619191
100262.4311420099
100332.2073980555
100401.6193198482
100470.3166697902
100537.942231767
100604.1385077585
100668.5557417972
100730.8603017633
100790.7432838151
100847.928798487
100902.1816945929
100953.3142231034
101001.1914429562
101045.7350057007
101086.9252747544
101124.8016263583
101159.4610896026
101191.055409487
101219.7869091797
101245.9032920808
101269.6918560427
101291.4734373848
101311.5963111189
101330.4304770256
101348.3623534608
101365.7903279508
101383.1209758404
101400.7662770787
101419.1414394709
101438.6636526653
101459.7517212323
101482.8274474466
101508.3192082517
101536.6685911537
101568.3394597482
101603.8288050821
101643.6779421926
101688.4849884616
101738.921503184
101795.7600675578
101859.9202964057
101932.5439817909
102015.1150521045
102109.6564668494
102219.0657201512
102347.7304283529
102502.6942295672
102694.9614880059
102935.299084138
103210.9776025773
103436.4964494079
103430.808253764
103032.1955518708
102280.5909872542
101430.2971839897
100745.0644591129
100323.5165222749
100117.721085535
100036.0902430991
100009.3657508232
100002.0657385549
100000.3886255693
100000.0625641485
100000.0086457869
100000.001028677
100000.00010569
100000.0000094048
100000.0000007271
100000.0000000531
99682.9734773036
99809.13135396231
99817.67156526691
99931.70503774138
99971.05835266339
100059.2422047389
100125.8216033995
100202.081571659
100276.8574264134
100352.6207893458
100428.4351057765
100503.9964912754
100578.8752118096
100652.6415173069
100724.8587543543
100795.0946589525
100862.9316476359
100927.9777402365
100989.8772667531
101048.3210186624
101103.0551349757
101153.8884565192
101200.697779984
101243.4309638994
101282.1075888964
101316.8174129346
101347.7166556581
101375.0225575743
101399.0065859457
101419.9867156712
101438.3192812703
101454.3908406384
101468.6104651153
101481.4026446155
101493.2011907482
101504.4440247883
101515.5692094516
101527.0118835309
101539.2023889923
101552.5651313236
101567.5185604498
101584.476237184
101603.8499175258
101626.0549793908
101651.5189364014
101680.6919931086
101714.0586906125
101752.1490148151
101795.550198381
101844.9226132552
101901.0276343112
101964.7763198269
102037.3119314104
102120.1447224971
102215.3750520354
102326.0718248393
102456.943218683
102615.4113286429
102811.8657352485
103052.1166884286
103309.9318314252
103480.4797485913
103381.4604939348
102888.5770726113
102093.0794916869
101264.4480944608
100635.2177144126
100266.2999907318
100093.6272214647
100027.7409402465
100006.9562821377
100001.4816975424
100000.2689583016
100000.0417306714
100000.0055507857
100000.0006347606
100000.0000625887
100000.0000053364
100000.0000003948
100000.0000000274
99862.34688491945
100002.9851508786
100016.2464876513
100140.2179971486
100189.7053213574
100284.5498448957
100361.3343361178
100445.230805244
100528.03136582
100611.0262438629
100693.403442436
100774.6838933958
100854.3269638148
100931.7965511107
101006.5681368985
101078.1431965157
101146.0632324076
101209.9232433818
101269.3838143093
101324.1812055853
101374.134786085
101419.1515622199
101459.2274299859
101494.4454012085
101524.9708637856
101551.0444939839
101572.9731888529
101591.1198045208
101605.8922911139
101617.732789077
101627.107286097
101634.4962057064
101640.3862893424
101645.2637960659
101649.6092609513
101653.8934905159
101658.5750258801
101664.0985710754
101670.894650881
101679.3799985638
101689.9591640172
101703.0272763521
101718.9750187963
101738.1959401825
101761.0966380895
101788.1082854444
101819.6984291419
101856.381340255
101898.7288624698
101947.3860554284
102003.1008943937
102066.7781791204
102139.5727220733
102223.0427416434
102319.4026959086
102431.9439157621
102565.7240500636
102728.3557108668
102928.6668818097
103165.3319522833
103395.9996649061
103497.7447056528
103295.8535315265
102712.3763765098
101888.0257598639
101095.8872573881
100529.6485429365
100213.8606128129
100072.4674414428
100020.6962702849
100005.0003285933
100001.0253227516
100000.1789459683
100000.0266542338
100000.0033973051
100000.0003715213
100000.0000349531
100000.0000028372
100000.0000001993
100000.0000000131
100062.652094692
100220.6401447149
100240.4861036739
100375.6722189824
100437.6175152874
100540.2471018938
100628.2700770001
100720.8620411038
100812.2022649517
100902.6766890133
100991.469500629
101077.9288580548
101161.3897195033
101241.2139402462
101316.8071327191
101387.6370824423
101453.250453016
101513.2869020883
101567.4897068248
101615.7124166232
101657.9210184623
101694.1918803731
101724.7055483446
101749.7372731795
101769.6447904138
101784.8545143308
101795.8468257388
101803.1414850929
101807.2838270301
101808.8322449938
101808.3474705858
101806.3837595268
101803.4821552077
101800.1655623379
101796.9356796228
101794.2712344711
101792.6276391356
101792.437444576
101794.1118861366
101798.0430262384
101804.6071191299
101814.1691402928
101827.0896024206
101843.7335395851
101864.4818938229
101889.7433514696
101919.9655338932
101955.6440093089
101997.3321817948
102045.6575756575
102101.3550867674
102165.3287075725
102238.7584339768
102323.2752164439
102421.2451589887
102536.2220744698
102673.5797093792
102840.7232645134
103043.5571227697
103271.1320764012
103462.9765962512
103481.8966963188
103171.4150134894
102506.8860231476
101672.1017766532
100930.4922382924
100431.7034085083
100167.5030304917
100054.5665352546
100014.9791374909
100003.4758432922
100000.6835993268
100000.1142211743
100000.0162504954
100000.0019729576
100000.0002048647
100000.0000182369
100000.0000013955
100000.0000000921
100000.0000000055
100290.2710730499
100468.0190073517
100496.8017609115
100643.9157986141
100720.7406516434
100832.3171302491
100932.3465584253
101034.3996097003
101134.4029459587
101232.0479942181
101326.4166319575
101416.6879297385
101502.0820486933
101581.892747305
101655.5103831436
101722.4418755772
101782.3261551033
101834.94395457
101880.2214287645
101918.2276580753
101949.1663148987
101973.3626403342
101991.2465791511
102003.3337582112
102010.2053189613
102012.4881343648
102010.8361628371
102005.9139424187
101998.3825308162
101988.8881580716
101978.0537283942
101966.4728637181
101954.7063988219
101943.2807213897
101932.6878544588
101923.386536053
101915.8043865216
101910.3405016763
101907.3688708723
101907.242191532
101910.2968610766
101916.8590827148
101927.2532560046
101941.8121879471
101960.8890479525
101984.868690254
102014.1774044943
102049.2902424569
102090.7403155089
102139.1369118216
102195.2044157727
102259.8542984844
102334.3084663054
102420.2979983493
102520.3764973447
102638.3762646597
102779.8501779119
102951.3164221289
103153.9819010989
103364.718189796
103504.2306086203
103427.7259843385
103008.308881148
102278.0712333144
101453.0383481329
100773.7858834647
100343.9535172296
100127.962378466
100039.973788032
100010.5157747014
100002.3351356875
100000.4385622007
100000.0697778645
100000.0094191892
100000.0010802413
100000.0001053998
100000.0000087629
100000.0000006221
100000.0000000379
100000.0000000022
100550.777301383
100750.8538358496
100791.4474886743
100951.3211218072
101045.4608219062
101167.3446507326
101279.8608479233
101391.6396253286
101499.7349930861
101603.3061693872
101701.289581329
101792.7360475688
101876.8151952803
101952.8459672454
102020.3193105463
102078.9128381613
102128.4968131343
102169.13104142
102201.0533139124
102224.6609242218
102240.4867230883
102249.1722173156
102251.4392888996
102248.0628371129
102239.8453857559
102227.5950321043
102212.1070607185
102194.1496494136
102174.453407528
102153.7044689491
102132.5407691197
102111.550820614
102091.274681418
102072.2062407375
102054.7967072539
102039.4584722834
102026.5695451292
102016.4779410656
102009.5066133776
102005.9585596591
102006.1231011548
102010.2832105844
102018.7250254746
102031.7486238797
102049.6797332378
102072.8796624984
102101.7530123579
102136.7532514023
102178.3922618424
102227.2619944327
102284.0812542961
102349.7804088816
102425.643422916
102513.530805382
102616.2116638233
102737.7657390128
102883.6310945045
103058.42341168
103256.5650496618
103440.5093339899
103513.4761472521
103332.2662255378
102810.0423056403
102034.2765350184
101238.901284446
100630.4335385578
100268.0351751642
100095.4159584825
100028.5086102377
100007.1634131665
100001.5158908293
100000.2704073279
100000.0406808251
100000.0051621772
100000.0005523794
100000.0000498132
100000.000003783
100000.000000242
100000.0000000131
100000.0000000006
100849.0234743734
101075.8140628648
101131.8303651116
101305.9103336163
101419.6830665099
101553.0978584244
101677.8857111478
101798.57588988
101912.8491174965
102019.4988264333
102117.3673757422
102205.4993925142
102283.1682847
102349.8992325558
102405.4795209311
102449.9546723247
102483.6119838468
102506.9532983566
102520.6598770575
102525.5531065101
102522.5537845947
102512.6434084448
102496.8289952571
102476.1133866335
102451.4712340901
102423.8311128104
102394.0631324105
102362.9715481795
102331.2914948652
102299.6889425522
102268.7632688427
102239.0514504655
102211.033564981
102185.1386842341
102161.751182879
102141.2166610334
102123.8479252141
102109.930482947
102099.7283941102
102093.490161915
102091.4558462625
102093.8651213277
102100.9672950156
102113.0319171903
102130.3593776566
102153.2886785044
102182.2027976568
102217.5330755754
102259.7703687523
102309.4922810767
102367.4200450524
102434.5180419568
102512.1556516042
102602.3509812877
102708.0966913564
102833.6086434147
102983.7059016285
103159.7490349349
103347.1932557285
103492.6769336983
103485.8179066326
103195.7658706446
102583.5574332807
101785.3971505301
101037.1823866795
100503.799731545
100204.583084841
100069.5496937015
100019.8217753367
100004.739889375
100000.951073222
100000.1600279088
100000.022545729
100000.0026528229
100000.000259653
100000.0000210142
100000.0000013939
100000.0000000748
100000.0000000032
100000.0000000001
101196.4961492284
101453.5314539276
101529.4203784443
101718.1796289583
101853.0165132229
101998.1204316976
102133.3475126104
102260.0947763579
102376.3553102315
102480.7837333297
102572.3164250624
102650.2403247176
102714.2103583088
102764.2451937508
102800.7029829257
102824.2394371637
102835.7540680139
102836.3304869588
102827.1758343837
102809.5645080597
102784.7885331538
102754.1171797066
102718.7656781638
102679.8733347613
102638.4896228242
102595.5672774754
102551.960832868
102508.4292072411
102465.6412943756
102424.183229547
102384.5669068266
102347.2387039294
102312.5883794242
102280.9573026938
102252.6463565873
102227.9227887443
102207.0267841806
102190.1772638649
102177.5780266679
102169.4238949961
102165.908175624
102167.2309174617
102173.6088031118
102185.2848064791
102202.5369015386
102225.6832548936
102255.0855203586
102291.1531344325
102334.3579233833
102385.2690279064
102444.6216986555
102513.4329198799
102593.1823538491
102686.0659661525
102795.2692193302
102924.915438529
103078.4594001732
103252.4071905634
103421.2974757228
103515.9929096538
103418.8912124045
103022.3185084509
102338.7322572515
101541.7311734879
100853.994887071
100395.7240708577
100153.312963168
100049.6821617887
100013.4681979654
100003.052027
100000.5770817347
100000.0907492435
100000.0118064396
100000.0012600702
100000.0001087891
100000.0000074103
100000.0000003785
100000.0000000126
100000.0000000001
99999.99999999999
101602.9073099474
101896.270031882
101997.0821633159
102200.0431003079
102355.3051076579
102510.0554256829
102651.1175687468
102777.8757179923
102888.601789052
102982.1893673837
103058.0641369958
103116.1873206595
103157.0179383491
103181.4441411485
103190.6962409296
103186.2513414354
103169.7395954342
103142.8598141188
103107.3081359076
103064.7227905315
103016.6438803358
102964.4877832351
102909.5331889152
102852.9169176875
102795.6366779138
102738.5587863855
102682.4290090233
102627.8849128436
102575.4690072887