/*--------------------------------*- C++ -*----------------------------------*\
| =========                 |                                                 |
| \\      /  F ield         | OpenFOAM: The Open Source CFD Toolbox           |
|  \\    /   O peration     | Version:  v1912                                 |
|   \\  /    A nd           | Website:  www.openfoam.com                      |
|    \\/     M anipulation  |                                                 |
\*---------------------------------------------------------------------------*/
FoamFile
{
    version     2.0;
    format      ascii;
    class       surfaceScalarField;
    location    "0.003";
    object      phi;
}
// * * * * * * * * * * * * * * * * * * * * * * * * * * * * * * * * * * * * * //

dimensions      [1 0 -1 0 0 0 0];
oriented        oriented;


internalField   nonuniform List<scalar> 
31760
(
-0.0005823246560068651
-0.03351673805310389
0.03414263604543887
-0.001177849696690586
-0.03586852961685382
0.03650650781046719
-0.001830782935229777
-0.03709153325506021
0.03778755993862024
-0.002466126991644601
-0.03918530892490252
0.03986225980358495
-0.003153720874116841
-0.04083895694848549
0.04156980318346772
-0.003835891772979952
-0.04289650847542443
0.04362243910671751
-0.0045725928302495
-0.04484172173160215
0.0456239042888164
-0.005319317396979964
-0.04698823115364701
0.04778174711961579
-0.006111718446607089
-0.0491698494129507
0.05001072926858883
-0.006930841016775237
-0.0514774294457732
0.05234671748142279
-0.007789087522500251
-0.0538788443555251
0.05478914959893769
-0.008684617370620724
-0.05639473909125724
0.05734460778683007
-0.009620193347071601
-0.05902471661717653
0.06001747096735401
-0.01059828539990932
-0.06177493123239231
0.06281373962258899
-0.01162090722531827
-0.06464893873560165
0.06573673412332402
-0.01269005068327369
-0.06765111516664807
0.06879082802640157
-0.01380745399599738
-0.0707860472257483
0.07198037584428089
-0.01497479870017969
-0.07405918595449303
0.07531063210500914
-0.0161937465238627
-0.07747684787718827
0.07878773703404915
-0.01746605810816403
-0.08104611078006511
0.0824186430144371
-0.01879370145250123
-0.08477479070603836
0.08621119358135983
-0.02017876750149077
-0.08867090946617896
0.09017338872324079
-0.02162352684919027
-0.09274295754363257
0.09431385041533502
-0.02313023141037756
-0.09699928677863939
0.09864092921369792
-0.02470113208444088
-0.1014486948832961
0.1031635070222916
-0.02633829785902455
-0.1060999498283709
0.1078902854391823
-0.02804367178093078
-0.1109624705842523
0.112830694288246
-0.02981893521741675
-0.1160458570232834
0.1179942058691743
-0.03166559411240773
-0.1213605271519109
0.1233911881008134
-0.03358485032217383
-0.1269172059226365
0.1290321720538161
-0.0355777133346515
-0.1327275388018938
0.1349286985899049
-0.03764485401851066
-0.1388035642129461
0.1410925333810671
-0.03978673009619763
-0.145158375152586
0.1475365972047325
-0.04200340323837583
-0.1518056100598325
0.1542741669068345
-0.04429464195448562
-0.1587601387657127
0.1613198713059698
-0.0466596742490939
-0.1660374806310443
0.1686888090658366
-0.04909720701766433
-0.1736543219744882
0.1763973701233638
-0.05160512953840962
-0.1816277238896301
0.1844621502564498
-0.05418050757229526
-0.1899753979792026
0.1929004809081247
-0.05681935176586992
-0.198714969614438
0.2017293822175699
-0.05951670471434839
-0.2078644986858532
0.2109662900046666
-0.06226656146887705
-0.217442461829723
0.2206288138883736
-0.065061990524169
-0.2274688403857275
0.230736068576424
-0.06789498696387891
-0.2379655029679477
0.2413088961594434
-0.07075639611630653
-0.248956854680591
0.2523707785518344
-0.07363563886675922
-0.2604693560321075
0.2639472151827734
-0.07652042566180081
-0.2725311130812324
0.2760652966964512
-0.079396518118298
-0.2851710799637719
0.288752840417911
-0.08224757435202733
-0.298419036864788
0.3020384365235073
-0.08505494595003309
-0.312305724974892
0.3159515563668351
-0.08779677927256159
-0.3268637128136813
0.3305230793753399
-0.09044779388987444
-0.3421283572800545
0.3457871094017957
-0.09297775450897758
-0.3581382555774414
0.3617808095471903
-0.09534946923389326
-0.3749350186976341
0.3785443440991729
-0.09751707376192104
-0.3925616070542483
0.3961195039009803
-0.09942057118124842
-0.4110613802742047
0.4145479787741474
-0.1009777848545307
-0.4304798432955455
0.4338746789622808
-0.1020580762766529
-0.4508701934348103
0.4541518132247501
-0.1024364797755674
-0.4723050345521982
0.4754485677670471
-0.1017974424152569
-0.4948937030737212
0.4978653535250406
-0.09996665732346981
-0.5187781878822965
0.5215339493177957
-0.09748838288535019
-0.5440457288496473
0.5465137665303068
-0.09617183449673229
-0.5705501253305962
0.572611143782234
-0.0982521548567345
-0.5978422179003544
0.5993574024946208
-0.1043424942081222
-0.6255512871993254
0.626389685086723
-0.1125074477629556
-0.6538567234156932
0.6539448221385584
-0.1196729548692013
-0.6834462168529308
0.6827627607016036
-0.1238419260886663
-0.7150059457316088
0.7135191991612745
-0.124718872691364
-0.748831568519347
0.7464837229939326
-0.122933338394377
-0.784893001779264
0.7816027866441349
-0.1191832421770963
-0.8230704912793345
0.8187337109877521
-0.1138684961106071
-0.8632996827705404
0.8577910023211174
-0.1070977165980962
-0.9055973771175081
0.8987716699423345
-0.09880431586588105
-0.950035681145067
0.941728842099531
-0.08883597639280236
-0.9967152919511165
0.9867440938288407
-0.07699750008352214
-1.045751230979789
1.033912223034585
-0.06306533932029468
-1.097267542428217
1.083335294823306
-0.04679030288519843
-1.151395976089176
1.135120927145417
-0.02789632295537278
-1.208276005723589
1.189382024198175
-1.268055226763495
1.246236913302986
-0.0005334322174881845
-0.03293453974391222
-0.00109152089458205
-0.03526568098013446
-0.001687937249066378
-0.03645172925413653
-0.002294029784554392
-0.0385380484652603
-0.002918504785804327
-0.04017241627932522
-0.003570823650002032
-0.04220213170540497
-0.004245873080988699
-0.04412333673028947
-0.004952940752424123
-0.04623694940671073
-0.005688866969906974
-0.04838824745135142
-0.006458536368352472
-0.05066061843699977
-0.007262324147218645
-0.05302598672659253
-0.008103143475549796
-0.05550248369507763
-0.008982854014096478
-0.05809050646740899
-0.009903714145942258
-0.06079571318314542
-0.01086762222383425
-0.06362188177872061
-0.01187637115149187
-0.06657349501349916
-0.01293155536064436
-0.06965537911041254
-0.01403475445500718
-0.07287315459633369
-0.01518760765872042
-0.0762332560796759
-0.01639193562944259
-0.07974279144233194
-0.01764977720180379
-0.08340952380019313
-0.01896334659822326
-0.0872414158211659
-0.02033499045087652
-0.0912468531040537
-0.02176705280681104
-0.09543415666005275
-0.02326181486415823
-0.0998120926250796
-0.02482139971568798
-0.1043894713096777
-0.02644774726999979
-0.1091757632880979
-0.02814257074130618
-0.1141806717373025
-0.02990734589937978
-0.1194147368204142
-0.0317432958253938
-0.124888840885838
-0.03365137837478761
-0.1306148193446582
-0.03563228497361844
-0.1366049275360105
-0.03768641329183894
-0.142872522267415
-0.03981386210539713
-0.1494315155175505
-0.04201435068730389
-0.1562971025771822
-0.04428716494755405
-0.1634851094587393
-0.046630978759203
-0.1710125956859284
-0.04904376200049405
-0.1788969669874179
-0.05152257343175961
-0.1871564121255425
-0.0540635738181378
-0.1958090445864971
-0.05666193969257782
-0.2048736323125542
-0.05931203602352288
-0.2143693717303118
-0.06200733834078235
-0.2243171605274415
-0.06474048041319223
-0.2347396891712606
-0.06750293585551405
-0.2456622770206193
-0.07028485787570748
-0.2571121586549687
-0.07307468747126028
-0.2691183595272369
-0.07585905234245434
-0.2817107251816612
-0.07862251797370515
-0.2949201216813247
-0.08134745721002901
-0.3087784057090177
-0.08401353977795011
-0.3233194307224447
-0.08659718269933737
-0.338579739020147
-0.08907005944513109
-0.354599239813571
-0.09139731723353955
-0.3714207723554557
-0.09353513102495731
-0.3890886931524299
-0.09542685519490064
-0.4076477888341886
-0.09699504858095219
-0.4271446771926143
-0.09812005278541269
-0.4476336418111549
-0.09859787829660399
-0.4691878901410766
-0.09812366970828265
-0.4919165999411118
-0.09647532821439876
-0.515967089900597
-0.09409236901916385
-0.5414557087265935
-0.09272660027745756
-0.5682913997429226
-0.09474924647680356
-0.596072493784919
-0.1010112276012153
-0.6244174812807219
-0.1096564884410049
-0.6534346068948571
-0.1174894478495971
-0.6837583450221957
-0.1223561114199837
-0.7160697252119272
-0.1238996078913744
-0.750684944987975
-0.1227756666228766
-0.7876019844191178
-0.1197350029099965
-0.8267267184458454
-0.1152199728199642
-0.8680165853654839
-0.1093665191350428
-0.9115073256872667
-0.1021272175336851
-0.957288583027338
-0.09336676420068524
-1.005478579887525
-0.08290764458165847
-1.056210864830387
-0.07054564465677358
-1.109629623918408
-0.05605290786073414
-1.16588872423875
-0.03917692228125973
-1.225151992695288
-1.287593853273803
-0.0004759130111255793
-0.03240743491905913
-0.0009960168902340765
-0.0347005976433408
-0.00154202909790392
-0.03586356221728396
-0.002109845848880717
-0.03793059609110643
-0.002687324648331953
-0.0395550112556645
-0.003299289977726574
-0.0415504825257311
-0.003928411654383733
-0.04345361943429851
-0.004592021168503129
-0.04553204529847733
-0.005281887807653537
-0.04765578911152099
-0.006005526779492418
-0.04989294717876597
-0.006762175554866781
-0.0522233220743166
-0.00755513504138481
-0.05466099041130263
-0.008386130828753594
-0.05720771446314296
-0.009257361872964488
-0.05986860900914125
-0.01017064415495261
-0.06264775766951033
-0.01112768111625557
-0.0655497872563833
-0.01213001707095249
-0.06857976624973962
-0.01317920442863259
-0.07174346288283429
-0.01427690524207805
-0.07504738318050422
-0.01542498428979638
-0.07849861262861284
-0.0166255527241791
-0.08210480980099902
-0.01788089701873413
-0.08587384084314702
-0.01919343853909577
-0.08981396581547997
-0.02056557947432598
-0.09393347363949386
-0.02199965543828507
-0.09824110342284534
-0.02349782001547366
-0.1027457333689461
-0.0250620417552841
-0.1074568991397103
-0.02669403661453554
-0.112384443520099
-0.02839529021058571
-0.1175390363137079
-0.03016701062211928
-0.1229317556314613
-0.03201015821958962
-0.1285746241029724
-0.03392539978865994
-0.1344801533857098
-0.03591313401143666
-0.1406619461631154
-0.03797342503538532
-0.1471342223353934
-0.0401059895629552
-0.1539124579642465
-0.0423100705345854
-0.1610128034887708
-0.04458435653799144
-0.1684526084768064
-0.04692681407672162
-0.1762496259826653
-0.04933461234284497
-0.1844224168246144
-0.05180405106161133
-0.1929895949750038
-0.05433061245832493
-0.2019705378499184
-0.05690901228271754
-0.2113851920095846
-0.05953323695743403
-0.2212552665297391
-0.06219644362042352
-0.2316042678373582
-0.0648907437890993
-0.2424582635717898
-0.06760691393292714
-0.2538451781372532
-0.070334138516928
-0.2657947259271613
-0.07305983090514553
-0.2783375152473194
-0.07576949595953344
-0.2915052952886605
-0.07844654136727749
-0.3053309293980641
-0.08107192294940238
-0.3198493755878036
-0.08362346966953507
-0.3350983250293736
-0.08607460233310639
-0.351118916117912
-0.08839245700019331
-0.3679552596846338
-0.09053527010311217
-0.3856530564906607
-0.09244867563098609
-0.4042584986142197
-0.0940586801309149
-0.42381969731269
-0.09525396996678917
-0.4443923248680852
-0.09584531443330413
-0.4660494803180951
-0.09553404152728914
-0.4888979848398146
-0.09406759774687085
-0.5130873971626518
-0.09181351705526433
-0.5387560938342798
-0.09049616850940034
-0.5658626023951481
-0.09260569183620167
-0.5940553870415923
-0.09916649789466658
-0.6229523602607696
-0.1083710295255047
-0.6526124243592267
-0.1169098233461848
-0.6836174466622269
-0.1224972160547953
-0.7166272484274113
-0.1247371121280938
-0.751967125959997
-0.1243188677804613
-0.789659035689713
-0.1220431460122391
-0.8296350647542848
-0.1183896091405636
-0.8718757135249917
-0.1135178265932609
-0.916435949364787
-0.1073976159751672
-0.9634222702905688
-0.0999097786294636
-1.012969174838263
-0.09089394880263579
-1.065227184221937
-0.08016478541381682
-1.120358863051708
-0.0675152771739372
-1.178538242729582
-0.05271591946321535
-1.239951351624174
-1.304797074294236
-0.0004209432965540597
-0.03193577581281754
-0.0009073326891929411
-0.03417095288700663
-0.001406578807139847
-0.03532465185485165
-0.001939701341570435
-0.03736022220233348
-0.002474815247751296
-0.0389827040481357
-0.003050564599515338
-0.04093777206645096
-0.003639074310775761
-0.04282741043400221
-0.004264212022729375
-0.04486848513211989
-0.004914020280335468
-0.04696626579762912
-0.005597724234436116
-0.04916796807486758
-0.006314005764781818
-0.05146363805986771
-0.007066260272477459
-0.05386262791684722
-0.007856163214773108
-0.05636827111729286
-0.008685834123068514
-0.05898519883491329
-0.009557046953277887
-0.06171781055883382
-0.01047147921814111
-0.06457088761218231
-0.01143069613903505
-0.06754970743136562
-0.01243630989602044
-0.07066014240851252
-0.01349006423856339
-0.07390872133463469
-0.01459392236013098
-0.07730245995377558
-0.0157500779647383
-0.08084888564999829
-0.0169608959005155
-0.08455574430822015
-0.01822884474779946
-0.08843117623583858
-0.01955636844996286
-0.09248343805776683
-0.02094582158430437
-0.09672126374544997
-0.02239937437112549
-0.1011536123592504
-0.02391899542113191
-0.1057901124111513
-0.02550639990930825
-0.1106407622710814
-0.02716306113246075
-0.1157163869824017
-0.02889017580457954
-0.1210282741651853
-0.03068868493297081
-0.1265886540932158
-0.03255923740567661
-0.1324103017386805
-0.03450220493663093
-0.1385070750981541
-0.03651762069349713
-0.1448934950032106
-0.03860516026002202
-0.1515853050401424
-0.04076402648152228
-0.1585989475011158
-0.04299288202343108
-0.1659520183864639
-0.04528970753875648
-0.1736625650521014
-0.04765176128726827
-0.1817494613355945
-0.05007552808993431
-0.1902317730900079
-0.05255679289955639
-0.1991294366128658
-0.05509067147893076
-0.2084631134009663
-0.05767164036723735
-0.2182552642831631
-0.06029339715038478
-0.2285301443836236
-0.06294864926431903
-0.2393144524453018
-0.06562881094593589
-0.2506366733020689
-0.06832378670832423
-0.2625270399297455
-0.07102179867089643
-0.2750167693879275
-0.07370928860314303
-0.2881383377316247
-0.07637073562880697
-0.3019254975686125
-0.07898833332929914
-0.3164142052607728
-0.08154131033897261
-0.3316432407516522
-0.08400472608270847
-0.3476548798536249
-0.08634755907298204
-0.3644944033977393
-0.08853004249741449
-0.3822087316106237
-0.0905000311502913
-0.4008453931369918
-0.09218679308096178
-0.4204540335688409
-0.09348575693300634
-0.4410917168018475
-0.09421922185471872
-0.4628315608626629
-0.09409662550361692
-0.4857784111318377
-0.09285117175794244
-0.5100827904035795
-0.09080978821602516
-0.5358984456516753
-0.08968809594403875
-0.5632238818517914
-0.09206186242285742
-0.591752957974975
-0.0990642502206029
-0.6211174407284656
-0.1088979272749649
-0.6513456100221889
-0.1181532027727219
-0.6829695517770019
-0.1244580130576417
-0.7166166845494626
-0.1274097945694226
-0.7526106278148414
-0.1277387505461803
-0.7909929566614216
-0.1262884071783391
-0.8317219392777571
-0.1235668621041146
-0.8748018943712462
-0.1197516537346279
-0.9203069916996839
-0.1148272013957889
-0.9683597546559684
-0.1086893309104669
-1.019109663913131
-0.1011943028640608
-1.07272266761739
-0.09217525399717713
-1.129377980747846
-0.08144561173068901
-1.189267894074009
-0.06879842249090272
-1.252598541912727
-1.319590964570576
-0.0003675134687962866
-0.0315205251519893
-0.0008228040525605428
-0.03367558345813072
-0.001277863786933403
-0.03483321321571429
-0.001779723426484656
-0.03682395602680807
-0.002276794046099506
-0.0384513670270312
-0.002820640213214225
-0.04035967134119752
-0.003374161549075632
-0.04223888038213736
-0.003966190367722824
-0.04424053820189025
-0.00458242376324555
-0.04631269321949386
-0.005232782144051626
-0.04847849939982169
-0.005915927088072692
-0.05073906548068883
-0.006635096134319754
-0.05309914852342095
-0.007392002459462907
-0.05556351314916853
-0.008188694075879285
-0.0581364444787997
-0.009026962234127411
-0.06082260343056421
-0.009908528003938133
-0.06362690950563178
-0.01083506007015516
-0.06655479036238444
-0.01180829990392837
-0.06961217116747116
-0.01283013814495812
-0.07280555622306228
-0.01390267014234161
-0.07614186154086351
-0.01502819404518545
-0.07962847631014873
-0.01620914681452934
-0.08327302594739711
-0.01744803275742699
-0.0870835535383704
-0.01874731150931754
-0.09106829745240651
-0.02010933228268725
-0.09523601504428311
-0.0215362546435852
-0.09959576209523795
-0.02303002484094407
-0.1041572870601325
-0.02459233575440678
-0.1089307584821545
-0.02622462974295112
-0.113927180390614
-0.02792807495620522
-0.1191580601687635
-0.02970357561693454
-0.1246358533045104
-0.03155174495266965
-0.1303735991077869
-0.03347290698941831
-0.1363854149857364
-0.03546704466876446
-0.1426861046720598
-0.03753377149714157
-0.1492916599760445
-0.03967223651091616
-0.1562187723156406
-0.0418810663966509
-0.1634852415585166
-0.04415826281802484
-0.171109351412481
-0.046501186156332
-0.1791102387160792
-0.04890653595393815
-0.1875073666710068
-0.0513704256085794
-0.1963211820035288
-0.05388840284366358
-0.2055730023199632
-0.05645545004697067
-0.2152859691038168
-0.05906582457544369
-0.2254849904450757
-0.06171284085689809
-0.2361972797844134
-0.06438858255778994
-0.2474517479215511
-0.06708370827644582
-0.259279004945318
-0.06978730129260516
-0.271710736595935
-0.07248679016271628
-0.2847800164529393
-0.07516778306763713
-0.2985213744660269
-0.07781375240765091
-0.3129716718783522
-0.08040535585616436
-0.3281706869770229
-0.08291922585785104
-0.3441617048648251
-0.08532603745569896
-0.360991000211739
-0.08758786665962942
-0.3787065148928787
-0.08965466778158698
-0.3973569830436798
-0.09145860313287638
-0.4169935632928134
-0.09290032680355255
-0.4376748649163402
-0.0938111981078794
-0.4594746678878502
-0.09391014469757285
-0.4824969008233629
-0.09293007656938548
-0.5068921665192089
-0.09118666358606717
-0.5328236859403706
-0.09041020035346331
-0.5603188986105474
-0.0932368170276239
-0.589112701719453
-0.1008432051943176
-0.6188621398039585
-0.1113905271146806
-0.6495797760735159
-0.1213794811566192
-0.6817526738622619
-0.1284026811936529
-0.7159679609392111
-0.1320880238206097
-0.7525387149166354
-0.1332146170735676
-0.7915222270719406
-0.1326609529825351
-0.8329025083424053
-0.1309539327225862
-0.8767078836712968
-0.1282831202747339
-0.923031296675963
-0.1246448853088236
-0.9720102676982265
-0.1199490682131325
-1.023807902101666
-0.1140681162924426
-1.078604031821059
-0.106853333754919
-1.136592824184002
-0.09813826942908198
-1.197982966232366
-0.08773816072479036
-1.262998651497667
-1.331880826072673
-0.0003261465086578674
-0.0311513115473241
-0.0007585304888438634
-0.0332071096272506
-0.001178130873501461
-0.03438077667892169
-0.001655059546522514
-0.03631552886300581
-0.002121670236567207
-0.03795323322845686
-0.002639481426986829
-0.03981000866713213
-0.003165281856765756
-0.04168030620933432
-0.003730509360375439
-0.04364136041842206
-0.00432045685228578
-0.04568717134257146
-0.004944679299380785
-0.04781670381176051
-0.005602400612375924
-0.05004127719198382
-0.006296570677628212
-0.05236191182113533
-0.007029045819583663
-0.05478441060261222
-0.007801872033336439
-0.05731288285146835
-0.008616933796564297
-0.05995216981637105
-0.009476082279276122
-0.06270729523631094
-0.01038115915358735
-0.06558377549491975
-0.01133410152434117
-0.06858753987230666
-0.01233698499397317
-0.07172503826935882
-0.01339206377892826
-0.07500307615267111
-0.01450174399794978
-0.07842891999056313
-0.01566852887193286
-0.08201009448313976
-0.01689494079234937
-0.08575458269459699
-0.01818343323782356
-0.08967063012128824
-0.01953632441554284
-0.0937670512208115
-0.0209557362541213
-0.09805301828316862
-0.02244356616518987
-0.1025384261068537
-0.02400145797019367
-0.1072336282736818
-0.02563079780200773
-0.1121498280993571
-0.02733269837555386
-0.1172987615697679
-0.02910800152353516
-0.1226931204411236
-0.03095725709794505
-0.1283462042481374
-0.03288071637547213
-0.134272382859198
-0.03487828776856118
-0.1404867167498172
-0.03694950665442017
-0.1470054151375509
-0.03909346092429298
-0.1538453709189541
-0.04130874971272124
-0.1610245415705857
-0.04359341806148553
-0.1685613933204868
-0.04594496543814123
-0.176475279303678
-0.0483603505908884
-0.1847860073474933
-0.05083606188206865
-0.1935144781460831
-0.05336812151041784
-0.2026825888291518
-0.05595205542012045
-0.212314065499195
-0.05858271788359821
-0.2224343497987342
-0.06125407311239134
-0.233071041094567
-0.06395892968599805
-0.2442533431503892
-0.06668876816593319
-0.256012117236735
-0.0694336116539183
-0.2683793958160547
-0.07218195632349274
-0.2813887368312663
-0.074920615270869
-0.2950753405447071
-0.07763439920234005
-0.3094768736377423
-0.08030542003699999
-0.324634001272898
-0.08291184405103173
-0.3405908687407338
-0.08542594264448924
-0.3573945412661824
-0.08781150056823231
-0.3750937602600932
-0.09002042667888763
-0.3937383269687189
-0.09198746002228822
-0.4133809398476886
-0.09361744225803451
-0.4340820320258519
-0.09474893318416094
-0.4559167090514017
-0.09511084571594008
-0.4789888705613097
-0.09444716412036065
-0.5034481906717866
-0.09309060308230849
-0.5294628710259086
-0.09281493690516497
-0.5570794018176167
-0.09629515740892444
-0.5860702964623414
-0.1046815201561615
-0.6161243164102936
-0.1160348129784476
-0.6472503993849578
-0.1267786589252259
-0.6798955425989276
-0.1345264531628795
-0.7146015752646292
-0.1389753387037129
-0.7516646220587491
-0.1409606341587372
-0.7911546007170545
-0.1413867329385641
-0.8330805181175494
-0.1407891947495041
-0.8774942927568903
-0.1393636620272426
-0.9245067737024595
-0.1371159470379343
-0.9742692398346986
-0.1339690250670929
-1.026957000107571
-0.1298111904482992
-1.082762229043387
-0.1245116923284683
-1.141892374620965
-0.1179239722178739
-1.204570692903951
-0.1098851930039813
-1.271037431429614
-1.341551238861661
-0.0002913210901732742
-0.03082232162964662
-0.0007042422107473648
-0.03276219402560313
-0.001093379790686278
-0.03396218414317254
-0.00154934149764884
-0.03583069961593319
-0.001991036729713079
-0.03748238349724183
-0.002487365950330195
-0.03928378432986819
-0.002991947791673908
-0.04114469824874198
-0.003536304996076932
-0.04306450676815437
-0.004107194432997036
-0.04508196803709637
-0.0047127898824849
-0.04717460193683435
-0.00535328118425643
-0.04936167592779651
-0.006031261777338053
-0.05164178643781322
-0.006748782365389376
-0.05402126426487174
-0.007507941989292756
-0.05650418587408492
-0.008310779732320786
-0.05909548421825711
-0.009159328312713403
-0.06180024310441076
-0.01005565321682809
-0.06462400931802587
-0.01100191587698469
-0.06757268034889756
-0.01200039839530811
-0.07065263768577065
-0.0130535166116965
-0.07387058579738252
-0.01416378221843068
-0.07723370005406217
-0.01533375112875091
-0.08074944089373333
-0.01656594812114696
-0.08442577778235691
-0.01786279767285686
-0.08827099839278713
-0.01922656239959952
-0.09229401179799883
-0.02065929729844478
-0.09650413097269853
-0.0221628205996681
-0.1009114234255151
-0.02373869362081308
-0.1055264433987988
-0.02538821316372921
-0.1103606104531491
-0.02711240168510673
-0.1154258950560234
-0.02891200535895856
-0.1207352281340919
-0.03078747801966512
-0.1263021574921975
-0.03273897151817724
-0.1321412857275232
-0.03476629974694728
-0.1382678935825355
-0.03686891421831236
-0.1446983648982233
-0.03904585153001441
-0.1514497408827257
-0.04129571399472064
-0.1585400864736617
-0.04361663816213107
-0.1659879987683782
-0.0460063254518002
-0.1738130005904981
-0.0484620621829734
-0.1820351887607522
-0.05098077947270429
-0.1906758486289735
-0.05355903636723085
-0.1997573595287632
-0.05619296135155032
-0.2093039106274946
-0.05887806635708497
-0.219341336597589
-0.06160903477961531
-0.2298974832790935
-0.0643794815546849
-0.2410017168950061
-0.06718180203484174
-0.2526850355165257
-0.07000705866717143
-0.2649797104066583
-0.0728449138140071
-0.2779196809024754
-0.07568347236297522
-0.291540712500847
-0.07850894493639116
-0.3058811693963268
-0.08130491911745581
-0.3209824760750037
-0.08405107028305207
-0.3368894761102915
-0.08672120968444816
-0.3536498269614523
-0.08928077036923307
-0.3713128837775941
-0.09168356899203775
-0.389929434875654
-0.09386678245832379
-0.4095537933272677
-0.09573873135766495
-0.4302484321101852
-0.09714335414124314
-0.4520901495137723
-0.09781941170561576
-0.4751830783994534
-0.09753178930310737
-0.4996755464489267
-0.09666112240014381
-0.5257368703459062
-0.09705495849495921
-0.5534261898092743
-0.1014042354514534
-0.5825487427445607
-0.1107556748741591
-0.612828822845908
-0.1230102021073769
-0.6442801902661057
-0.1345335998037059
-0.677314457388154
-0.1430206867558156
-0.7124254894820407
-0.148275917786977
-0.7498886750325268
-0.1511957299480347
-0.7897843762022145
-0.1526999005044611
-0.8321455889258724
-0.1533222868772906
-0.8770468154657645
-0.1532589522336973
-0.9246155132675671
-0.152522937922479
-0.975015287448325
-0.1510496613834814
-1.028432175355774
-0.148743043553386
-1.085069156151721
-0.145490152506503
-1.145145309221224
-0.1411641888054528
-1.208896661927951
-0.1356240761805705
-1.2765775446214
-1.348462143737359
-0.0002659195128917216
-0.03052403797880831
-0.0006656372823361842
-0.03233423756890622
-0.001031363060026356
-0.03356991984873189
-0.001472117386224687
-0.03536328193517928
-0.001896754504281585
-0.03703048485784279
-0.002377960343555289
-0.03877419387808131
-0.002869757557322712
-0.04062318215412926
-0.003400987138911083
-0.04250184451754557
-0.003961609181105055
-0.04448795420211576
-0.004557723532779126
-0.04654278997145438
-0.005190679691907169
-0.04869039408616018
-0.005862804497920393
-0.05092835855198957
-0.006576382452151472
-0.05326306465294708
-0.007333658954315856
-0.05569864127458296
-0.008136889376697484
-0.0582400411946364
-0.008988349751103356
-0.06089236488541695
-0.009890364223861699
-0.06366115163676374
-0.01084534055635504
-0.06655225135146664
-0.01185577085519264
-0.06957198517772802
-0.01292422653043727
-0.07272698606281208
-0.01405331235289443
-0.07602438398407856
-0.01524561782481257
-0.07947162520691704
-0.01650364968874673
-0.08307671805789353
-0.01782977631839103
-0.08684803605653575
-0.01922617544325515
-0.09079462256424167
-0.02069479916807887
-0.09492596042358226
-0.02223734920284546
-0.0992523151948682
-0.02385526280087955
-0.1037844580690385
-0.02554970693300206
-0.1085340362149987
-0.02732157260900443
-0.1135132552871951
-0.02917147425210678
-0.1187352769513773
-0.03109973837321384
-0.1242138743575344
-0.03310639759751213
-0.1299638479099193
-0.03519116501696844
-0.1360006498170569
-0.0373534225507781
-0.1423407831443776
-0.03959219139757305
-0.1490013773719771
-0.04190613682111029
-0.1560005494286283
-0.04429356518921573
-0.1633569735444457
-0.04675247058692018
-0.1710902903175104
-0.04928056024839064
-0.1792208199567385
-0.05187529745593468
-0.1877701456103778
-0.05453386134528411
-0.1967610091410811
-0.05725306351776079
-0.2062179194298164
-0.06002915804371697
-0.2161669489282712
-0.06285764129174583
-0.2266360466327701
-0.06573303891120753
-0.2376546169193026
-0.06864877314518579
-0.2492536919346337
-0.0715970599373206
-0.2614656858754564
-0.07456883653134215
-0.2743248246384042
-0.07755359219786977
-0.2878673355377062
-0.08053900206556415
-0.3021321651994681
-0.08351015699328847
-0.3171613577471416
-0.08644823919754532
-0.3330002873132961
-0.08932859671656505
-0.349697025199235
-0.0921183408786936
-0.3673014100718345
-0.0947732642231691
-0.3858651923809802
-0.09723294753804232
-0.4054443486203845
-0.09940847515364808
-0.4261034038315194
-0.1011471597848865
-0.4479208105503483
-0.1021973000047452
-0.4710009464396461
-0.1023564075628024
-0.4954905299671467
-0.1020861427241145
-0.5215580944816692
-0.1033372020232824
-0.5492699959796009
-0.1087843255675178
-0.5784597156144164
-0.1192878066568093
-0.6088879026128846
-0.1325341759660809
-0.640579052463397
-0.1448629402449877
-0.6739126507820771
-0.1541138493522651
-0.709334689370402
-0.1602332840919437
-0.747098044549665
-0.1641796773291338
-0.7872923445051975
-0.1668760899471336
-0.82997326683225
-0.1688444745538659
-0.8752363222818833
-0.1702762429434139
-0.9232238987512789
-0.1711898770659591
-0.9741103368419662
-0.1715327700417636
-1.028090888677997
-0.1712243758831789
-1.085377805748497
-0.1701695519676778
-1.146200168209008
-0.1682612178324097
-1.21080500023711
-0.1653799924633253
-1.279458770422795
-1.352449068430755
-0.0002532943854440359
-0.03024305043718637
-0.000647820841473431
-0.03191463025031793
-0.001001642421416181
-0.03319187935360786
-0.001435105675100406
-0.03490489519103449
-0.001852920743948869
-0.03658686013099281
-0.002327114975677102
-0.0382727759586115
-0.002816029244782102
-0.04010555508944991
-0.003343456609923268
-0.04194384061723541
-0.003903819080449855
-0.04389498746153768
-0.004501016288279893
-0.04591066410674952
-0.005137536569345392
-0.04801637517579235
-0.005815647432407913
-0.05020990472788953
-0.00653791348886055
-0.05249735528817295
-0.007306818017972462
-0.05488294242339484
-0.008124893102280544
-0.05737159428175811
-0.008994698720222672
-0.05996840238244461
-0.009918837862455848
-0.06267888471948176
-0.01089996594575973
-0.06550885233208747
-0.01194077257843259
-0.06846459568508857
-0.01304396374382311
-0.07155272311201699
-0.01421221027695097
-0.07478037752553791
-0.0154481052226911
-0.07815505069710776
-0.01675410274734462
-0.08168484826320169
-0.01813247663637151
-0.08537827859669726
-0.01958527637060591
-0.08924456171726468
-0.0211143038718362
-0.09329338143474669
-0.02272109465316691
-0.09753522501408328
-0.02440691185394264
-0.101981093251427
-0.02617274523403441
-0.1066428639673306
-0.02801931216876688
-0.1115329680189128
-0.02994706263094823
-0.1166647743578484
-0.0319561755250299
-0.1220522427405584
-0.03404656196380387
-0.127710318932402
-0.03621785324782905
-0.1336545628377147
-0.03846940655651211