/*--------------------------------*- C++ -*----------------------------------*\
| =========                 |                                                 |
| \\      /  F ield         | OpenFOAM: The Open Source CFD Toolbox           |
|  \\    /   O peration     | Version:  v1912                                 |
|   \\  /    A nd           | Website:  www.openfoam.com                      |
|    \\/     M anipulation  |                                                 |
\*---------------------------------------------------------------------------*/
FoamFile
{
    version     2.0;
    format      ascii;
    class       volScalarField;
    location    "0.003";
    object      rho;
}
// * * * * * * * * * * * * * * * * * * * * * * * * * * * * * * * * * * * * * //

dimensions      [1 -3 0 0 0 0 0];


internalField   nonuniform List<scalar> 
16000
(
1.338658659598712
1.337846652528351
1.335724877052935
1.33578042773699
1.335299670901727
1.335451534033762
1.335413935893968
1.335599573163867
1.335773703871111
1.336047210905613
1.336378521571112
1.336790848695668
1.337275932307597
1.337829290996107
1.338436437924454
1.339077979754923
1.339731524245396
1.340375114631752
1.34099026311861
1.341564693505623
1.342093057453067
1.342576815137438
1.343022276088605
1.343438449615562
1.343834833140387
1.344219940402126
1.344600491559697
1.344981278672226
1.345365314413291
1.345754306842818
1.346149144280004
1.34655059734198
1.346959942701348
1.347379589821112
1.347813229465881
1.348265409446161
1.348740190051044
1.349239289476261
1.349760266358683
1.350295992206456
1.350836148135278
1.351370850832624
1.351894929259833
1.352410843795046
1.352928397877318
1.353461383156453
1.354023039341952
1.354622967508366
1.355266832624054
1.355958357928554
1.356702465267631
1.357508155413512
1.358389158164463
1.359361958121197
1.360442219909274
1.361644492691564
1.362993051596579
1.364545509787071
1.366431902844636
1.36887799740926
1.372100320224527
1.375939487098387
1.379300408190178
1.380204823242742
1.377249995037107
1.371073928989578
1.364027997088892
1.358325147806069
1.354756214391459
1.35295259774235
1.352197520652566
1.351931145015989
1.351850975319639
1.351830196940273
1.351825524592775
1.351824607368919
1.351824449339222
1.351824425331988
1.351824422103712
1.35182442172211
1.339228753405638
1.338499554924709
1.336370000373402
1.336609639241868
1.336111566544462
1.336365955945389
1.336330421348359
1.336578933235652
1.336774744603573
1.337088532581741
1.337445647565318
1.337880246431464
1.338377956771257
1.338934036001336
1.339533928775339
1.340159826555322
1.340791988000616
1.341411794393869
1.342004181855904
1.342559708026961
1.343074945977319
1.343552101685334
1.343997249377872
1.344418446737075
1.344823897424468
1.345220770570363
1.34561458803193
1.346009163276371
1.346406779709323
1.346808627835787
1.347215280072371
1.347627333835515
1.348046016505145
1.348473726906842
1.348914142544764
1.349371702723807
1.349850267483552
1.350351256801697
1.350871958030486
1.35140506987692
1.351940301755199
1.35246794553939
1.35298309562646
1.353488399476392
1.353993719982455
1.354512755598801
1.355058630290365
1.355640850338155
1.356264970265775
1.356934534416787
1.357654269887659
1.358433019536575
1.359284851441635
1.360226970035937
1.361275382370639
1.362444141983348
1.363755190175971
1.365261144865934
1.367080948204478
1.369430767616044
1.372553483705836
1.376368865117829
1.379859677117308
1.380996474358471
1.378181077690865
1.371919064616727
1.364620002563852
1.358648342419052
1.354894945597242
1.352999198901587
1.352209314264888
1.351933078713649
1.351850995336761
1.351830078575051
1.351825474346849
1.351824593566518
1.351824446388576
1.351824424810875
1.351824422025415
1.35182442171088
1.33959759381243
1.339072181153164
1.337030189510228
1.33746698938246
1.337000848025327
1.337353310114259
1.337353710454716
1.337661807068072
1.337896533686777
1.338250048741353
1.338636770751034
1.339091729826996
1.33959841963523
1.34015182754773
1.340738277665406
1.341342309193319
1.341947515942926
1.34253906790802
1.343105533826593
1.343640289246937
1.344141628447649
1.344612211115771
1.345057550468026
1.345484458259158
1.345899611202918
1.346308673450193
1.346715866668734
1.34712398296233
1.347534571919513
1.347948347813736
1.348365626680931
1.348786916013849
1.349213447494662
1.34964762651394
1.350093028137071
1.350553805985002
1.351033335402306
1.351532469432116
1.352048040656478
1.352572648828895
1.353096370256191
1.353610269796141
1.354110327144877
1.354599864876874
1.355088970118389
1.355591164977726
1.356119204770896
1.356682302003584
1.357285871344255
1.357933448594592
1.358629780545644
1.359383776844642
1.360209738196141
1.361125249646165
1.362146597435202
1.363287561174364
1.364568656839637
1.366038342101584
1.367806322507558
1.370080394089755
1.373117321714614
1.376888679657528
1.380433961359207
1.381685546728297
1.378914499187919
1.372543165551591
1.365029171936822
1.358853339767664
1.354972265127665
1.353019649093014
1.352211909216157
1.351932339475179
1.351850378342746
1.351829838337403
1.351825406448849
1.351824578233563
1.351824443510784
1.35182442435276
1.351824421962703
1.351824421702702
1.339827985881483
1.339608162236292
1.3377146482131
1.338362868504117
1.337950712442818
1.338408716759689
1.338457157308741
1.338828747906293
1.33910763474095
1.339500982209793
1.339916717875088
1.340389142175643
1.340901277399352
1.341448254062203
1.34201809515887
1.342598149837905
1.343175600787775
1.343739388278513
1.34428147492506
1.344797689914738
1.345287635398659
1.345754063238124
1.346201652534345
1.346635801174386
1.347061581245377
1.34748313543988
1.347903412095617
1.348324231893245
1.348746482927116
1.34917048776013
1.349596402669715
1.350024730695405
1.35045676696363
1.350894915653812
1.351342564484745
1.351803406341863
1.352280120284981
1.3527728050405
1.353277792026695
1.35378773761339
1.354293477422154
1.354787376413331
1.355266825939941
1.355736160115677
1.35620577749794
1.35668887829456
1.357197619217903
1.357740721482593
1.358323410002198
1.35894930693145
1.359623371986495
1.360354734576741
1.361157841094867
1.362050345947509
1.363048550471727
1.364166076061296
1.365422726773555
1.366864412185804
1.368594443291249
1.370812825553288
1.373779425982161
1.377492832651197
1.381023479620324
1.382277681728226
1.379452353983265
1.37293645939803
1.365242505264344
1.358930941098024
1.354983587766656
1.353012292062558
1.352204864803757
1.351928838414386
1.351849108672665
1.351829472359783
1.351825319452947
1.351824560831549
1.351824440543683
1.351824423917768
1.351824421907473
1.351824421696015
1.340010506408226
1.340158794862763
1.338448205406886
1.339307579010524
1.338961993102766
1.339525023264358
1.339627672666013
1.340060768665968
1.340384875965376
1.340814663673209
1.34125675116171
1.34174314601042
1.342257997333837
1.342796935880538
1.34335019558782
1.343908049544073
1.344461109826223
1.345001681290255
1.345524557263696
1.346027442814385
1.346510734000312
1.346976923901778
1.347429667494578
1.347872908776768
1.348310170567777
1.348744182339752
1.349176745601005
1.349608840151618
1.350040818920395
1.350472734915271
1.350904693529987
1.351337277076142
1.351771879877871
1.352210875530355
1.352657363267733
1.353114424557208
1.353583892626078
1.354065038974017
1.354553768533169
1.355043051864254
1.355524891723953
1.355993411025825
1.356447785605041
1.356893540531996
1.357341346567783
1.357803889954107
1.358292500723772
1.358815244350662
1.35937710890869
1.359981876760661
1.360634883600992
1.361345625287687
1.362128701194772
1.363001622364848
1.363980375410945
1.365078364899388
1.366315284499102
1.367736067095608
1.369440009918121
1.371619694721365
1.37452999906739
1.378175038974527
1.381629968193314
1.382779539426821
1.379796686913908
1.373095075021044
1.365255616033615
1.358879172245452
1.354928914207701
1.352977737680515
1.352188650465874
1.351922794458728
1.351847260418016
1.3518289998555
1.351825217198643
1.351824541929876
1.351824437538742
1.351824423504719
1.351824421858135
1.351824421690393
1.34026155246854
1.340786994136187
1.339267483325262
1.340318396975465
1.340043082732128
1.340700731568325
1.340858480032039
1.341345662617784
1.341712907978659
1.342173788044165
1.342638930125531
1.343136649506386
1.34365340198826
1.344185538227622
1.3447256310015
1.3452666511034
1.34580214734337
1.346327115611233
1.346838441143223
1.347335043395026
1.347817608556046
1.348288088010291
1.348749029691726
1.349202996266978
1.349652122678934
1.350097921059175
1.350541242691798
1.350982408147515
1.351421395382087
1.351858125729745
1.352292759021377
1.352726018900563
1.353159402486526
1.353595195587207
1.354036104835088
1.354484491990113
1.35494129123525
1.355405011702529
1.355871346420659
1.356333926649181
1.356786321749004
1.357224755724271
1.35765037713854
1.358069900287493
1.358494115232773
1.358934980597792
1.359402813529125
1.359904918474596
1.360446037878886
1.361030196271147
1.361663250069093
1.362355196358907
1.363120805158394
1.363977262361872
1.364939955462387
1.366022007096567
1.367243448671127
1.368649337781197
1.370336651735046
1.372491278210789
1.375357521034883
1.378926111804251
1.382248955155864
1.383188178799173
1.379943075729232
1.373015485985888
1.365068633769792
1.358700933510809
1.35481150202894
1.352918197245627
1.352164353401479
1.351914620559223
1.351844958534073
1.351828451399223
1.351825105752809
1.351824522495232
1.351824434615237
1.351824423123756
1.351824421814945
1.351824421685726
1.34064264668084
1.341520722986304
1.340179547623046
1.341398384053067
1.341190656234871
1.3419303285189
1.342142032564927
1.342674722172558
1.343082782429378
1.34357028923856
1.344056589273646
1.34456534492563
1.345085948037381
1.345615562235178
1.346148903952332
1.346681178769727
1.347208187932868
1.347726837046097
1.348235337907792
1.348733203865692
1.349220994369829
1.349699940858911
1.350171502951841
1.35063701963958
1.351097466355091
1.351553384877831
1.352004909763628
1.352451909662365
1.352894161837907
1.353331591687951
1.353764501303595
1.354193788274756
1.354621024710041
1.355048335638918
1.355477951857263
1.355911479327813
1.35634902275338
1.356788541837151
1.357225859716174
1.357655668094559
1.358073447965328
1.358477712635181
1.358871570133939
1.359262749890968
1.35966192393932
1.360080122367097
1.360526536268597
1.361007685684174
1.361528114923264
1.3620921917845
1.362706419838486
1.363381383614492
1.364131975928176
1.364974836767427
1.365924493724796
1.366993749532836
1.368203313212557
1.369599130719727
1.371277268394527
1.373418188585071
1.376251298386855
1.379735191182062
1.382868748675805
1.383490472103058
1.379881053608582
1.372695008814531
1.364686668994321
1.358404105390772
1.354637727066172
1.352837305908545
1.352133560870638
1.351904867678074
1.35184235801181
1.351827862644374
1.351824991826481
1.351824503551566
1.351824431896206
1.351824422785576
1.351824421778352
1.351824421681955
1.341211345056541
1.342388643925559
1.341200014223924
1.34255714976564
1.342411952048351
1.34321782471477
1.34348186585336
1.344051019862215
1.344498013839317
1.345009422925278
1.345516819318965
1.346038776198621
1.346567640548416
1.347101316798367
1.347636222881383
1.348169188212483
1.348697517227821
1.349219257703367
1.349733265198794
1.350239140946138
1.350737027844927
1.351227364569056
1.351710622243672
1.352187127149859
1.352656954837477
1.353119942116349
1.353575751365678
1.354024011165844
1.354464467899041
1.354897173356691
1.355322637075273
1.355741936081205
1.356156673104953
1.35656874998756
1.356979892171966
1.357391014941738
1.357801598099204
1.358209398182467
1.35861079494717
1.359001934045492
1.359380443978628
1.359747132040113
1.360106858144904
1.360468055365161
1.360840998518456
1.361235632536663
1.361659997076336
1.362119889716381
1.362619759387294
1.363164431997612
1.363761151165159
1.364421094362942
1.365159123575896
1.3659910375872
1.366930247608352
1.367989248791651
1.369189783396026
1.37057943310632
1.372254879824923
1.374392560594521
1.377201972576969
1.380589069524548
1.383469282228615
1.383663700614939
1.379595353384371
1.372133132169002
1.364120404568135
1.358001462327881
1.354416740300323
1.352739835046595
1.352098205328017
1.35189416260875
1.351839624184098
1.351827269268616
1.351824881702244
1.351824485988719
1.351824429478994
1.351824422497404
1.351824421748476
1.351824421679008
1.341997444419591
1.343402921214191
1.342341817253629
1.343802325789384
1.343715005734795
1.34457050940173
1.344886446110653
1.34548480821958
1.345970453821477
1.346505967545889
1.347036848922545
1.34757669377548
1.34812032677667
1.348666178352841
1.349211799704612
1.349755001057586
1.350293889606484
1.350827000641364
1.351353300090729
1.351872122205861
1.352383035907699
1.352885710566378
1.353379786208134
1.353864813891826
1.354340238073701
1.354805456135442
1.355259899479826
1.355703161604932
1.35613511673032
1.356556048133924
1.356966718983185
1.35736837996257
1.357762630028874
1.358151129945342
1.358535156126613
1.358915116578346
1.359290195390169
1.359658382568621
1.360017057472627
1.360364134583509
1.360699465851142
1.361025963737564
1.361349869576945
1.361679925020829
1.362025735078498
1.362396071593991
1.362797884630634
1.363236382499013
1.363716059058113
1.364242306713357
1.364823142403337
1.365470232796435
1.366198135749891
1.367021458434569
1.367952301168666
1.369003009016198
1.370196883308104
1.37158409080287
1.373263575604261
1.375408372031348
1.378200588106428
1.381470043433838
1.38402147568594
1.383676581981827
1.379068383163942
1.371333536765359
1.363386879672341
1.357510393599351
1.354159937206424
1.352631315037321
1.352060385290256
1.351883144109969
1.351836914910729
1.351826703013856
1.351824780528402
1.351824470461648
1.351824427423731
1.351824422261906
1.351824421725026
1.351824421676788
1.342984226660471
1.344555247991628
1.343594144860173
1.345135054019
1.34510240209447
1.345996925827148
1.346367561019261
1.346992545531958
1.3475193797394
1.348082869526439
1.348642294082132
1.349206853650118
1.349773137695546
1.35033981831164
1.350905017086552
1.351466949349867
1.352023953107795
1.35257455741422
1.353117476057613
1.353651575426273
1.354175810589462
1.354689180263861
1.355190689878385
1.355679366640031
1.356154293191227
1.356614688572051
1.357059988286956
1.357489947658981
1.357904717398652
1.358304906681092
1.358691574574407
1.359066152402142
1.359430241868811
1.359785319664026
1.360132372995526
1.360471596910391
1.36080229337282
1.36112314335882
1.361432902711896
1.361731422219509
1.362020662239933
1.362305275368284
1.362592405338094
1.362890687699469
1.363208836598353
1.363554444417531
1.363933507197368
1.364350822928216
1.364811080375155
1.365320311822517
1.365887253646337
1.366523834583062
1.367243937891451
1.368060647651922
1.368984731333613
1.370028800153215
1.371218497872976
1.372607717375723
1.374299048081908
1.376460868021171
1.379236686745766
1.382353990132479
1.384486833330984
1.383491409319366
1.378283352658949
1.370306520931145
1.362509689134313
1.356952166236167
1.353880156391408
1.352517565695992
1.352022168329104
1.351872400908406
1.351834365392501
1.351826188804977
1.351824691908007
1.351824457350608
1.351824425751865
1.35182442207749
1.351824421707362
1.35182442167518
1.344158079865302
1.345841771103691
1.344959150906947
1.346564654329803
1.346588446556862
1.34751515819767
1.347946843815665
1.348600064863694
1.349172786425906
1.349770842093492
1.350365641893468
1.350962775960999
1.351559821331838
1.352155368159
1.352747606623658
1.353334685630094
1.353914749557932
1.354485992545394
1.355046670923745
1.355595113819124
1.356129720044678
1.356648977712581
1.357151487456022
1.357636019337176
1.35810157036148
1.358547445264229
1.358973319995722
1.359379307754259
1.359765983249811
1.360134379296371
1.360485908911976
1.360822228276091
1.361145012846269
1.361455700042815
1.361755242142132
1.362043987514546
1.362321785876945
1.362588402567245
1.362844202703938
1.363090946544689
1.363332397959846
1.363574454527163
1.363824643256771
1.364091120849008
1.364381572842313
1.364702486080763
1.36505908936463
1.365455965233996
1.365898127024649
1.366392257828024
1.366947655734012
1.367576174374003
1.368290617684936
1.369102339803772
1.370021027990028
1.371060279574541
1.372249069591314
1.373646129771863
1.375358246892092
1.377545069780888
1.380295994640095
1.383208509513509
1.384818098328561
1.383067321686179
1.377228745680666
1.369071133202582
1.361518904056255
1.35635078977247
1.353590756183812
1.352404204457297
1.351985412555351
1.351862421483688
1.351832077752392
1.351825743218131
1.351824617779199
1.351824446770534
1.351824424451236
1.351824421939281
1.351824421694617
1.351824421674063
1.345510544134735
1.347266451308406
1.346448062131943
1.348107274393552
1.348195441638964
1.34915071393477
1.349652625933295
1.350339786401246
1.350964713634424
1.351605665703534
1.352243571837251
1.352881152901723
1.35351626250438
1.354147086760666
1.354771478040274
1.355387170666208
1.355991837241626
1.35658315886326
1.357158867747726
1.357716802931889
1.358254952624861
1.35877151796872
1.35926496858758
1.359734116005576
1.3601781714456
1.360596807997227
1.360990191887666
1.361359000379928
1.361704390023597
1.362027931307641
1.362331480830706
1.362617014161709
1.362886419674367
1.363141313149968
1.363382919942943
1.363612113187279
1.363829652789605
1.364036637533738
1.364235076029085
1.364428406064063
1.364621736181383
1.364821650035772
1.365035569176818
1.365270887253583
1.36553422061595
1.365831090878779
1.366166171649944
1.366544012635108
1.366970035341751
1.367451503427976
1.367998017505949
1.368620952573856
1.369331684129458
1.370139853357665
1.37105463428915
1.372091569852564
1.373283985410453
1.374696223973442
1.376438406031837
1.378653836649814
1.381357963719801
1.383991531776358
1.384960956002001
1.382365228027064
1.375902936531725
1.367656907985195
1.360450212486966
1.355731605629573
1.353304599167778
1.352296215314897
1.351951624138373
1.351853562061903
1.351830116220275
1.351825374275373
1.351824558534452
1.35182443861365
1.351824423484589
1.351824421840332
1.351824421685834
1.351824421673324
1.347028088088595
1.348833497579061
1.348072748486704
1.349782802624487
1.349949484486886
1.350934790877332
1.35151813602794
1.352248936818272
1.352933733806694
1.353626708379524
1.354315440793517
1.35500035902998
1.355679014961519
1.35634891135591
1.357007266088527
1.357651177696278
1.358277711494852
1.358884000541132
1.359467322472155
1.360025192379993
1.360555435443459
1.361056273096778
1.361526386373684
1.361964982473828
1.362371830570533
1.362747287223875
1.363092280965495
1.363408274255323
1.363697176775063
1.363961230701015
1.364202854850592
1.364424480098623
1.364628389961966
1.364816623018189
1.364990972010883
1.365153130342428
1.365304984775831
1.365449016454763
1.365588697173513
1.36572873642012
1.365875039140195
1.366034327728689
1.366213518086333
1.36641907127455
1.366656585607568
1.366930803446376
1.367246054547198
1.367607002756515
1.368019497213824
1.368491224592795
1.369031750537619
1.369651567211569
1.370360419369825
1.371166532534331
1.37207940572818
1.373117576738393
1.374319553411306
1.37575540690893
1.377535732545052
1.379775826646405
1.382393594160385
1.384651121390845
1.384857612508918
1.381353667424723
1.374318460850732
1.366104271684095
1.359343129863217
1.355119503612446
1.353033096415325
1.352197585349274
1.351921864554289
1.351846032742563
1.351828507263563
1.351825082254134
1.35182451330678
1.351824432611355
1.351824422799455
1.351824421772832
1.351824421680072
1.351824421672856
1.348709347398405
1.350557238266573
1.349860034169059
1.351622630847343
1.351887169050676
1.352907681251535
1.353583963516557
1.35437041035064
1.355123122513603
1.355876681200303
1.356622676947731
1.357359577279638
1.358084176807011
1.358793070622272
1.359482661179188
1.360149326942389
1.360789544211248
1.361400022437327
1.361977810259508
1.362520411387482
1.363025867324189
1.363492841453531
1.363920663693731
1.364309365310663
1.3646596695587
1.364972963062962
1.365251222426894
1.365496918677423
1.36571288317573
1.365902163366245
1.366067862960677
1.36621300717789
1.366340447113244
1.366452847155744
1.366552770661019
1.366642877662707
1.366726201143168
1.366806439491463
1.366888163477447
1.366976839634079
1.36707861196497
1.36719987367658
1.367346759176596
1.367524746234214
1.367738540321722
1.367992311262872
1.368290232997843
1.368637178675769
1.369039369628176
1.369504677466523
1.370042257432154
1.370661386981271
1.371370192998482
1.372176059721356
1.373089811287663
1.374133942654362
1.375352596682143
1.376820722719098
1.37864393089843
1.380893522541626
1.383363850573909
1.385127041729219
1.384452243740307
1.380015384676035
1.372505179446394
1.364463191442522
1.358238485469476
1.35453704196526
1.352785422288676
1.352111060648853
1.35189672180104
1.351839901542295
1.351827244381378
1.351824861373925
1.351824480359836
1.351824428403126
1.35182442233758
1.351824421729118
1.351824421676493
1.351824421672577
1.350581520429891
1.352467154987934
1.351853326458751
1.353665520477602
1.354052448649343
1.355116278324264
1.35589634592001
1.356751402181064
1.357579650441921
1.358400564280776
1.359207573359383
1.359997334231242
1.360765572040912
1.36150785957279
1.36221976279944
1.36289703898953
1.363535795637636
1.364132651685753
1.364684857741623
1.36519040993128
1.365648114787679
1.366057638473253
1.366419502320824
1.366735057366459
1.367006408526247
1.36723631869354
1.367428073855013
1.367585337411577
1.367711986200839
1.367811959298104
1.367889121340831
1.367947175659303
1.367989636983333
1.368019887288224
1.368041309971049
1.368057487500357
1.368072414251217
1.368090660438591
1.36811741573789
1.368158364825473
1.368219400386006
1.368306245152374
1.368424114476319
1.368577555616985
1.368770555283396
1.369006912357824
1.36929079399172
1.369627313628647
1.370022930788143
1.370485404394731
1.371023117304355
1.371643940039777
1.372354642074831
1.373162560436157
1.374080866564975
1.37513673195683
1.376379839554958
1.377887819500884
1.37975259694404
1.381981369725912
1.384219117911207
1.38535445430847
1.383698305711941
1.378353755683967
1.370511270307109
1.362790383337584
1.357175258298716
1.354002901063565
1.352567922400436
1.352038097569142
1.351876331756832
1.35183511724561
1.351826296144549
1.351824701879089
1.351824457494779
1.351824425599436
1.351824422042469
1.351824421702372
1.351824421674398
1.351824421672422
1.352649928084026
1.354593996568319
1.354086196654762
1.355960221853723
1.356494281247233
1.357615320606953
1.358508905832919
1.359444716149902
1.360354098046418
1.361245397035329
1.362112306107816
1.362949757871558
1.363752284539426
1.36451450684063
1.365231370054592
1.365898378852709
1.366511778376231
1.36706871683513
1.367567345280402
1.368006889619322
1.368387655092241
1.368710999925223
1.368979247985845
1.369195577541676
1.369363865301745
1.369488521378125
1.369574303262211
1.369626140683076
1.369648968442454
1.369647596556859
1.369626619232208
1.369590386944282
1.369543041534205
1.369488617224828
1.369431187876017
1.369375029222176
1.369324749337753
1.3692853370397
1.369262093512802
1.369260441091473
1.369285653907659
1.369342590323447
1.369435536418618
1.369568238776351
1.36974415998025
1.369966906843612
1.37024073381776
1.370570950596765
1.370964050965624
1.37142735758335
1.371968190362002
1.372593015703596
1.373307745467988
1.374120590096238
1.375047974750463
1.376122098598324
1.377397346298874
1.378949971885398
1.380845744031213
1.383004493674626
1.384900617679079
1.385269965901061
1.382566794624656
1.376397255140897
1.368401255131138
1.361144583153129
1.356187488152463
1.353530491435516
1.352383954554753
1.351978925296499
1.351860457771992
1.351831540454006
1.351825615649626
1.351824592081052
1.351824442414588
1.351824423830328
1.351824421864651
1.351824421687013
1.351824421673253
1.351824421672341
1.354981650636957
1.357000716871881
1.356630596213031
1.358570255430648
1.35927707449092
1.360468715903366
1.361482135499626
1.362506834420222
1.363498171062292
1.364456354608566
1.365374218571237
1.366245084438878
1.367062444988537
1.367820370904235
1.368513794488905
1.369138750457069
1.36969253439165
1.370173811422692
1.370582636553785
1.370920425210507
1.371189845719568
1.371394676569969
1.371539610179111
1.371630045522527
1.371671858593268
1.371671187567485
1.371634225706812
1.371567052514635
1.371475497689569
1.371365061678631
1.371240887448165
1.371107793895547
1.370970360539486
1.370833050045006
1.370700342473704
1.37057684603202
1.370467350547528
1.370376794046883
1.370310140693507
1.370272190805905
1.370267383565131
1.370299660941895
1.37037246905595
1.370488928852142
1.370652168130467
1.370865738617384
1.371134009608074
1.371462370434238
1.371857092800797
1.372324758386344
1.372871468182176
1.373502509514575
1.374223631894964
1.375044851241295
1.375986517165408
1.377085722313653
1.378399692906332
1.379996797553684
1.381900335993804
1.383918415075372
1.38534457971741
1.384820460039973
1.381054882872539
1.374201362800038
1.366251215176605
1.359581527449289
1.355301523808631
1.353127431378172
1.352234034971151
1.351932768776
1.35184859546303
1.351828980153369
1.351825149408695
1.35182452017624
1.351824432992634
1.351824422778357
1.351824421764303
1.351824421678813
1.351824421672679
1.351824421672305
1.357627997601842
1.359745023822269
1.359550541278683
1.361562279266627
1.362465874700941
1.363743530390918
1.364879519777228
1.365995192797985
1.367061481421574
1.368072779181813
1.369020642455457
1.369897307199486
1.370695971221336
1.371411174265995
1.372039059623557
1.37257754637462
1.373026379582112
1.373387097569263
1.373662892760826
1.373858416808604
1.373979517149253
1.374032958052735
1.374026118845374
1.373966714172648
1.373862529519155
1.373721203697718
1.37355005060193
1.373355940638958
1.373145233284677
1.372923768292195
1.372696909683757
1.372469632634613
1.372246640637563
1.372032489263644
1.371831692597917
1.371648782669729
1.371488306368876
1.371354750113672
1.371252414104931
1.371185268023544
1.371156848042847
1.371170242863428
1.371228213710413
1.371333444001337
1.371488887791969
1.371698119978203
1.371965580783137
1.37229655991282
1.372696836541179
1.373172024497785
1.373727031234961
1.374366406232449
1.375096545981182
1.37593009347518
1.376891647593551
1.378022424351628
1.379379228216696
1.381013081612237
1.382885442038735
1.384670611489711
1.385489319420319
1.383973329079501
1.379192291376967
1.371846055405362
1.364141541086482
1.358148727609878
1.354534311750289
1.352795628754642
1.352116305085646
1.351898136305058
1.351840088662289
1.351827226565418
1.351824844894118
1.351824475497734
1.351824427440619
1.35182442219284
1.351824421711807
1.351824421674806
1.351824421672417
1.351824421672289
1.360634865175534
1.362896099953329
1.362922421335477
1.365019268330693
1.36614018063421
1.367516717501376
1.368769912491786
1.369966416086705
1.371086121555855
1.372119822216596
1.373058432492028
1.373894464098844
1.374622471895298
1.375239343311124
1.375744414002403
1.376139436405449
1.376428394735021
1.376617225192514
1.376713444079807
1.376725751964884
1.37666361692435
1.376536893587532
1.376355473192316
1.376129001181763
1.375866650389851
1.375576968229607
1.375267783386432
1.374946178359616
1.374618513491592
1.374290498926922
1.373967301060418
1.373653667893985
1.373354059551882
1.373072756680456
1.372813934224788
1.372581679631141
1.372379958290346
1.372212530716648
1.372082856118302
1.371994013341124
1.371948689760967
1.37194926174533
1.371997988731337
1.372097289868135
1.372250058606784
1.372459906173531
1.37273123350106
1.373069015652345
1.373478306521416
1.373963660379988
1.374529018605529
1.375178803826651
1.375920868646383
1.376771080328624
1.377758157731168
1.37892583147262
1.38032540862373
1.381978065703078
1.383762873101529
1.385205255662098
1.385285142781914
1.382726240069157
1.377042852695177
1.369427920480427
1.362147693265823
1.356880822305836
1.353892631903096
1.352531943434822
1.352027162459872
1.351873128502565
1.351834233375145
1.351826077919656
1.351824655597762
1.351824449244501
1.351824424373349
1.35182442189085
1.351824421686757
1.351824421673056
1.351824421672314
1.351824421672283
1.36412205457274
1.366561876120278
1.366864171097556
1.369045848549825
1.370393308895453
1.371868978354423
1.373216352318108
1.374461697042735
1.37558964611082
1.376590082622341
1.37745532517874
1.378180764512132
1.378765147418827
1.379210567096606
1.379522212519284
1.379707947644236
1.379777759325044
1.379743167651666
1.379616624469361
1.379410974716392
1.379138980576028
1.37881295060876
1.378444455067903
1.378044143230708
1.3776216383266
1.377185510663025
1.376743308298526
1.376301637755872
1.375866280121374
1.375442329203241
1.375034340227168
1.374646469983306
1.374282600188631
1.37394642060909
1.373641471446539
1.373371133930255
1.37313858624645
1.37294673612032
1.372798168749929
1.37269513283033
1.372639602886172
1.372633421104872
1.372678523415748
1.37277720098537
1.372932341501858
1.373147541761818
1.373427009570013
1.373775199501297
1.374196297909815
1.374693878978603
1.37527132783613
1.375933630300795
1.376690789508353
1.377562161860696
1.378579898737063
1.379787570733593
1.381223847702264
1.382865232234915
1.384489645924735
1.385471191879446
1.38470562822509
1.381114136185766
1.374700493237896
1.367049033799526
1.360331990066534
1.355797194036372
1.353373902402106
1.352329458176007
1.351962015982011
1.351855734755299
1.351830363319171
1.351825358642416
1.351824543817819
1.351824434723464
1.351824422799134
1.351824421748923
1.351824421676178
1.351824421672409
1.351824421672282
1.351824421672281
1.368179160280957
1.370865347087055
1.371500838338634
1.373757570465886
1.375315867410794
1.37686712270023
1.378256743387401
1.379486111978292
1.380543676198098
1.381422492462712
1.382120386052742
1.382639973424434
1.382988327457085
1.383176305329288
1.383217679907686
1.383128213459712
1.38292475142168
1.382624434597327
1.382244039230135
1.381799489127112
1.381305507718608
1.380775418234797
1.380221049837721
1.37965274209664
1.379079413964707
1.378508685458548
1.377947031228209
1.377399952816267
1.376872159073968