/*--------------------------------*- C++ -*----------------------------------*\
| =========                 |                                                 |
| \\      /  F ield         | OpenFOAM: The Open Source CFD Toolbox           |
|  \\    /   O peration     | Version:  v1912                                 |
|   \\  /    A nd           | Website:  www.openfoam.com                      |
|    \\/     M anipulation  |                                                 |
\*---------------------------------------------------------------------------*/
FoamFile
{
    version     2.0;
    format      ascii;
    class       volScalarField;
    location    "0.003";
    object      T;
}
// * * * * * * * * * * * * * * * * * * * * * * * * * * * * * * * * * * * * * //

dimensions      [0 0 0 1 0 0 0];


internalField   nonuniform List<scalar> 
16000
(
254.3765166532959
254.6280137093636
255.0372091927489
255.1178794528677
255.2343017218246
255.2840915453749
255.3361393964963
255.3710624984338
255.3969100581191
255.4133586436628
255.4177749144675
255.4106132248589
255.3915401154493
255.3621121957474
255.3249249659508
255.2837578130595
255.2428752109331
255.2064513645404
255.1779798154531
255.1597549420215
255.1527427869896
255.1566076148437
255.1700872317228
255.191402935331
255.2186814345977
255.2502353108389
255.2847155672261
255.3211390864131
255.358858900263
255.3974783985137
255.4367583785584
255.4764911645492
255.5163830808874
255.5559461510341
255.5944730518336
255.6311313226717
255.6652245169109
255.6965619717881
255.7258133008126
255.754628509739
255.785364257654
255.8204119820234
255.8613845084751
255.9085594335157
255.960916214143
256.0167511301201
256.07450673367
256.133349312834
256.1932765983408
256.2548230466158
256.3185949517516
256.3848858328174
256.4537120448836
256.5255005355496
256.6022358055191
256.6882619547849
256.7899097391967
256.9151681816301
257.0752236105126
257.2851403308273
257.5524591159837
257.8445740578658
258.0536147296776
258.03473360354
257.7277426683305
257.2273325458456
256.7165614406234
256.3321652468888
256.1045584550278
255.994784342609
255.9507016248571
255.9357309482451
255.931381813526
255.9302915299498
255.9300540406648
255.9300088343892
255.9300012779353
255.9300001640528
255.9300000187519
255.9300000020868
254.4047677234896
254.6490458434452
255.0586676602963
255.1125388313411
255.2327446924418
255.2702953726483
255.3242934811122
255.3532966170294
255.3790211280328
255.3930669194788
255.3974858372181
255.3912571127698
255.3750153182436
255.3504188370619
255.3200379139145
255.2873204934095
255.2559959916759
255.2295747373896
255.2108727017279
255.2016230103019
255.2024068138242
255.2127279863882
255.2313504802584
255.2566565489172
255.2869959425672
255.3209103257797
255.3572503232627
255.3951888281179
255.4341885818044
255.4739225672444
255.5141866080399
255.5547822773298
255.595407076337
255.6355582974111
255.6745203948527
255.7114714623514
255.7457482751109
255.7772092546355
255.8065686306418
255.8354935697193
255.8663150547777
255.9013599142686
255.9421601897423
255.9889277329005
256.0406103064981
256.0955081684474
256.1520918084714
256.2095682280306
256.267977851374
256.3279001760667
256.3899841743144
256.4545480275794
256.5215792804235
256.591388944441
256.665794051774
256.749001333961
256.8472857516232
256.9683787393342
257.1227027016469
257.3252103175543
257.5867824767683
257.8812379232744
258.1040910712419
258.1021125849955
257.8002946928366
257.2882063580112
256.7564919994197
256.3527852277869
256.1129823836832
255.9974850831846
255.9513530956831
255.9358311602026
255.9313813573555
255.930285122701
255.9300514797574
255.9300081588685
255.9300011385377
255.9300001402431
255.9300000152899
255.9300000016052
254.4887716158042
254.7033857851769
255.095443281124
255.1212380351267
255.2355706378294
255.2628573333968
255.312417060516
255.336818711464
255.3595805196859
255.3718081941989
255.3760364821253
255.3715910480543
255.359384241592
255.3411031987947
255.3191360062822
255.296449435598
255.2761110245232
255.2608825176364
255.2528622148371
255.2532219817176
255.2621894005705
255.2791548167953
255.3029592664621
255.3321905491985
255.3654553345932
255.4015472293924
255.4395292009455
255.4787345580844
255.5187331415344
255.5592593300147
255.6001317831575
255.6411483516426
255.6819890360472
255.7221389818569
255.7608949438021
255.7974872083971
255.8313444213713
255.8624355335431
255.8915629822045
255.920415031768
255.9512518628435
255.9862521038116
256.0267760888374
256.072908639185
256.1235602613357
256.1770820145615
256.2320433950505
256.287752156877
256.3443260815853
256.4023963499154
256.4626422909024
256.5253946335125
256.5906150235565
256.658539938922
256.7309027540384
256.8118518816417
256.9075990694357
257.0255563663352
257.1754137866685
257.3718480175094
257.6276759133187
257.9212423973834
258.1507197054894
258.1570474460337
257.8554923564796
257.3322720988091
256.7837714861495
256.3658020321713
256.1176881068361
255.9986863812432
255.9515040292751
255.9357934936856
255.9313499105749
255.9302732015454
255.9300482088188
255.9300074422029
255.930001008087
255.9300001201137
255.9300000126217
255.9300000012682
254.6145303316101
254.780911933356
255.1438564987462
255.1396979701282
255.2441232053019
255.2604385694756
255.303743044847
255.3232624677819
255.3427456932427
255.3535612380712
255.358323744289
255.3567079723761
255.3497279404989
255.3389609261538
255.3264690103405
255.3146428295756
255.3058373360988
255.3020647190015
255.3047458573095
255.3145534503913
255.3314323137307
255.3547190339306
255.3833750647962
255.4162171203973
255.4521164579284
255.4901156620124
255.5294810427679
255.5696941751796
255.6104180127622
255.6514331024046
255.6925658295432
255.7335981475632
255.7741880443012
255.8138174394305
255.8518218677449
255.8875280182081
255.9205107774273
255.9508999635127
255.9796133681693
256.008349829177
256.0392470814523
256.0742583837218
256.1144975570677
256.1598804434798
256.2092855587917
256.2611600161187
256.3142320941228
256.3679591969986
256.4225588631576
256.4787094931888
256.5371006014258
256.598052383033
256.6615018975051
256.7276597288479
256.7982490171148
256.8774183409181
256.9713171958585
257.0870599694572
257.2337097146946
257.4254803985229
257.6760265038021
257.9662933627353
258.1959023397098
258.202200608903
257.8950000253574
257.3597548968868
256.7980164732652
256.3708248985949
256.1184551137634
255.9983018556752
255.9511282335681
255.935610994282
255.9312855998769
255.9302552098229
255.9300440587008
255.9300066366959
255.930000874857
255.9300001011781
255.9300000102938
255.9300000009959
254.7628843491106
254.8706796054938
255.1980305578683
255.1653809262984
255.2577517282576
255.2640546121014
255.3006073924597
255.3160599244997
255.3328932391638
255.3433777521655
255.349844486002
255.3522583078968
255.3515717714185
255.3491363768118
255.3465955745843
255.345736243365
255.3482255625978
255.3553967978403
255.3680927222507
255.3865882175739
255.4106338532513
255.4395703733205
255.4725073778475
255.5084910994333
255.5466411246351
255.5862245746705
255.6266849945768
255.6676274684271
255.7087861291601
255.7499686673167
255.7909947722658
255.8316228729776
255.8714924105963
255.9100997045211
255.9468521648435
255.9812169226006
256.0129605354339
256.0424058474084
256.0705916158921
256.0991991370713
256.1301879041646
256.1652201072777
256.2051121914639
256.2495935146252
256.2975307255653
256.3475115141032
256.3984711019456
256.4500500904533
256.5025764574652
256.5567639152323
256.6132868719567
256.6724335710543
256.7341270723177
256.7986085936316
256.8676693804276
256.9455038076558
257.0381897056371
257.1525462245049
257.2970736519171
257.485395273684
257.731157823968
258.016134813442
258.2400114446065
258.2380741404377
257.9187931106374
257.3702513064121
256.7988623391986
256.3676888755891
256.1152621559859
255.9963563798702
255.9502471664733
255.9352935761971
255.9311916551467
255.9302319385498
255.9300391746977
255.9300057606946
255.9300007397054
255.9300000831542
255.9300000082067
255.9300000007664
254.9152385636296
254.9632872556862
255.2533968299744
255.1966029197715
255.2765974357235
255.2752548561912
255.3057538468161
255.3187983657114
255.33432605079
255.3459574577315
255.3554761772674
255.3630367214466
255.3694109857072
255.3756497160313
255.3829465661507
255.3925200691848
255.4054344324011
255.422462836798
255.4440008680719
255.4700412320854
255.5002265730844
255.5339466568435
255.5704676568768
255.6090456051227
255.6490140027368
255.6898255207259
255.7310642667636
255.7724273446905
255.8136952483228
255.8546847028248
255.8951991661854
255.9349745107484
255.9736456681301
256.0107507120902
256.0458064929683
256.0784600242746
256.1086991366185
256.1370474057771
256.1646439546958
256.1931069083446
256.2241611611826
256.2591308345347
256.2985147490252
256.3418678679804
256.3880810693187
256.4359255082286
256.4845770800804
256.5338755498702
256.5842565219319
256.6364506759549
256.6910916137562
256.7484195818233
256.8083609125143
256.8712487319851
256.9390202039028
257.0159495400582
257.1080074718259
257.2216765896996
257.3649322684394
257.5507776591912
257.7922249218125
258.0702345974665
258.2828634802026
258.2644973850045
257.926570443798
257.3635479267689
256.7863401046916
256.356582426714
256.1083035318669
255.9929744709419
255.9489190928565
255.9348623880853
255.9310742061927
255.9302048258382
255.9300338301836
255.930004855773
255.9300006074732
255.9300000664145
255.9300000063639
255.9300000005745
255.0571404140228
255.0521838229896
255.3074617847309
255.2328266934325
255.3016939758891
255.2959847655509
255.322036791429
255.3347865023893
255.3507414514766
255.3650760732984
255.3789036757601
255.3924537786629
255.4062559840269
255.4210346436525
255.4375590618893
255.456561749989
255.4786242815403
255.5040985907833
255.5330679588663
255.5653505682378
255.6005506081534
255.6381325203423
255.6775090567217
255.7181121010588
255.7594441598658
255.8010979799737
255.8427582510831
255.8841822804722
255.9251742484726
255.9655475139873
256.0050885882007
256.0435228134041
256.0805057783649
256.1156523301427
256.1486262768275
256.1792832473694
256.2078405607279
256.2350028525415
256.2619642971719
256.2902222665581
256.3212179426031
256.3559156899129
256.3945101180686
256.4364221533932
256.4806152100326
256.5260813496515
256.5722544830301
256.6191716846732
256.6673606378907
256.7175454852594
256.7702956399649
256.8257950713033
256.8839984274962
256.9453921396239
257.0121233614295
257.0885557078244
257.1804915043304
257.2940202867046
257.4366536000029
257.6208322264425
257.8584051065383
258.12781998703
258.3236446469378
258.2806211843528
257.9177485109218
257.339608961272
256.7608626144511
256.3380250090091
256.0979655645237
255.9883637473862
255.9472303333175
255.9343461278715
255.9309410159799
255.9301755939623
255.9300283385529
255.9300039682618
255.9300004835715
255.9300000514203
255.9300000047853
255.9300000004178
255.1806282955961
255.134956880854
255.3603122491459
255.2751234360468
255.3350993868739
255.3286231941307
255.3522928296398
255.3668679235513
255.3849919865963
255.403362538661
255.4224394222612
255.4424265648051
255.4636034345519
255.4863867529409
255.5111862406019
255.5383542212916
255.5681183199186
255.6005416321019
255.6355119376641
255.6727570868465
255.7118878994286
255.752449746011
255.7939783494986
255.8360401059865
255.8782595992688
255.9203254324362
255.961986429131
256.0030336050291
256.0432797664234
256.0825319860608
256.1205701364872
256.1571325736797
256.1919295339811
256.2246903755465
256.2552567990193
256.2837049275126
256.3104652319658
256.3363781476948
256.362629943712
256.3905378664235
256.4212268530184
256.4553096430746
256.4927216961077
256.5328115297035
256.5746676327076
256.6175296223878
256.6610889343379
256.7055614831735
256.7515408007195
256.7997178578197
256.8505790962983
256.9042542031899
256.9607601821508
257.0207942187001
257.0867537657915
257.163069728954
257.255300147431
257.3691074544789
257.5116526183978
257.6948962543888
257.9289182787306
258.18779662154
258.3608505849007
258.2849508863694
257.8915285950212
257.2986369568303
256.7232423183447
256.3128509887708
256.0848020246731
255.9827972337801
255.945286430949
255.9337776653358
255.9308004469086
255.9301459900847
255.9300229988611
255.930003139554
255.9300003724726
255.9300000385107
255.9300000034805
255.9300000002938
255.2852515438378
255.2132762690741
255.4149443781671
255.3260647116445
255.3797633112035
255.3757295323822
255.3990848370916
255.41720900635
255.4389380439329
255.4622600643575
255.4871002143377
255.5135660670472
255.5417151295988
255.5717038422694
255.6036636755218
255.6376728704543
255.673720156463
255.7116877725736
255.7513546465817
255.7924135911784
255.8345030214098
255.8772397395052
255.9202518801349
255.9631992389145
256.0057862859409
256.047760745086
256.0889080710069
256.129036574338
256.1679636269973
256.2054989421329
256.2414376627748
256.27556378181
256.3076799716309
256.3376635721488
256.3655514555443
256.3916306893587
256.4165044261724
256.4410845288319
256.4664799813368
256.4937788986889
256.5237822629456
256.5567899107818
256.5925480240707
256.6304047174438
256.6696205429695
256.7096934076674
256.7505536845705
256.7925634497294
256.8363481028383
256.8825383777075
256.9315261318466
256.983401078782
257.0382854330243
257.0971369958462
257.1626161520041
257.2391710439194
257.3320433799847
257.446481764464
257.5894501267395
257.7724367154638
258.0029315656641
258.2486304200715
258.3922855895125
258.2754682626796
257.8470732772336
257.2411958486877
256.6747237413149
256.2821848236752
256.0695000669224
255.9765912901417
255.9432022552593
255.9331906615891
255.9306605472044
255.9301175874043
255.930018060637
255.9300024010097
255.9300002770966
255.9300000278394
255.9300000024424
255.9300000001994
255.3748974345349
255.2908066009803
255.4751410718534
255.3883821160219
255.4383252326821
255.4392682943713
255.4641253132394
255.4869974958096
255.5133509247071
255.5421201807221
255.5728597691356
255.6055467351684
255.6400620044983
255.6763605528507
255.7143746019011
255.7539982802067
255.7950702193382
255.8373682531058
255.8806170984455
255.9245027086078
255.9686936592299
256.0128601123144
256.0566919733115
256.099907675597
256.1422594905264
256.1835295169062
256.2235250666647
256.2620684105486
256.2989902928366
256.3341239266264
256.3673108209973
256.3984174138553
256.4273734227223
256.4542258978424
256.4792049629953
256.5027765766097
256.525656972717
256.5487565141363
256.5730442920382
256.5993515394074
256.6281765357026
256.6595710043482
256.693175394726
256.7284071298545
256.7647312458175
256.8018957274719
256.840034969819
256.879614093516
256.9212524721871
256.965496583411
257.0126422949701
257.0627674913406
257.1161496284487
257.1740454831565
257.2393630264742
257.3164990048232
257.4103271565434
257.5257471016743
257.669676816327
257.8529671580696
258.0794070305916
258.308234498144
258.4151031245593
258.2498217704461
257.7837329890518
257.1683401065071
256.6169847192313
256.2473883508502
256.0528312273644
255.9700787392609
255.9410913072375
255.9326163240527
255.930528278142
255.9300916407921
255.9300137031378
255.9300017717988
255.9300001986824
255.9300000193769
255.9300000016487
255.9300000001301
255.4553259137373
255.3720924235247
255.5443953013227
255.464547207538
255.5127691724453
255.5205083807055
255.5483119107406
255.5766445144192
255.6082428303604
255.6426327996497
255.6791545356903
255.7176508614603
255.7578724276111
255.7996278410745
255.8427136160455
255.8869054537739
255.9319508753072
255.9775688215101
256.0234576246294
256.0693051053893
256.1148021785917
256.1596530608001
256.2035849921044
256.2463513621129
256.2877339057272
256.3275391171873
256.3655961362971
256.4017518916513
256.4358716871849
256.4678423726267
256.4975872103226
256.5250892718703
256.5504293417404
256.573828237292
256.5956861510116
256.6165968997963
256.6373202540657
256.6586962837434
256.6815100854394
256.7063359815519
256.7334178795311
256.7626404985298
256.7936223948073
256.8259059912638
256.8591726694705
256.8933934676217
256.9288594501957
256.9660901423694
257.0056617611855
257.0480198771796
257.0933765500473
257.1418403646051
257.1938975260339
257.2511255030271
257.3166372125648
257.3947004056418
257.4897988935219
257.606586435593
257.7520272966651
257.9359196722179
258.1569322852725
258.36387760342
258.4258966611892
258.2055815189898
257.7013042331855
257.0817177563262
256.5521015921253
256.2099826614187
256.035594301977
255.9635808285132
255.9390559124273
255.9320807551654
255.9304089734684
255.9300690065816
255.9300100281821
255.930001259011
255.9300001369609
255.9300000129469
255.9300000010667
255.9300000000811
255.5336615211259
255.4618715665396
255.6260036390213
255.5566108073529
255.6046039187308
255.6202014824036
255.652038574673
255.6861678711369
255.7233258825372
255.7633195175052
255.8053903480402
255.8492588825002
255.8945806221182
255.9410588411135
255.9883967402324
256.0362915251947
256.0844322472521
256.1325007731755
256.18017895423
256.2271549874116
256.2731325503262
256.3178361286318
256.3610168920015
256.4024538603624
256.4419557217447
256.4793591904668
256.5145299870448
256.5473630388605
256.5777885667413
256.6057814883387
256.6313796213434
256.6547070083297
256.6760029174605
256.6956456542158
256.7141633733866
256.7322154246173
256.7505370440771
256.7698448812014
256.7907220272386
256.8135137454883
256.8382771594755
256.8648146961344
256.8927941404567
256.9219164600422
256.9520688879859
256.9834030341553
257.0163121904986
257.0513216788952
257.0889334577519
257.1294876888124
257.173141160915
257.2200882188383
257.2710738350862
257.3279943975208
257.3940990138697
257.4734488724333
257.5701494171511
257.6887270384763
257.8361663097284
258.0204953815773
258.2335625769795
258.4121521320318
258.4208991424556
258.1405916912119
257.6003170500456
256.9836398727508
256.4824765485315
256.1715551122224
256.0185551205035
255.9573824271693
255.9371794559822
255.9316032221648
255.9303060747576
255.9300501258117
255.9300070642653
255.9300008593353
255.9300000904946
255.9300000082737
255.9300000006587
255.9300000000482
255.6162483175667
255.5639729823312
255.7223582149757
255.6658935184022
255.7147692401767
255.7387264240803
255.7754492935456
255.8155369705361
255.8584158803148
255.903946473823
255.9513371200779
256.0002005245821
256.0501168759279
256.1007078838044
256.1516057497527
256.2024485619742
256.2528810817175
256.302556073348
256.3511410547589
256.3983225464224
256.4438132907148
256.4873554596845
256.5287254528525
256.5677348843046
256.6042332529144
256.6381083566682
256.6692898043268
256.6977526005885
256.7235259229113
256.746704155834
256.7674630033157
256.7860757731149
256.8029280176939
256.8185204377581
256.8334545805085
256.848391852146
256.8639872092721
256.8808041764589
256.899233284103
256.9194400930887
256.941369962564
256.9648181828972
256.9895507969982
257.0154355654979
257.0425354221253
257.071130010242
257.1016595491893
257.1346124676681
257.1703966227047
257.2092584835505
257.2513447840211
257.2969972899183
257.3472558876442
257.4043037523689
257.4714352428944
257.5524381139132
257.6510850312938
257.7718788928409
257.9216200617266
258.1055145053624
258.3066955752641
258.4490409064298
258.39629395315
258.0533813339836
257.4822723003435
256.8770666731369
256.4107134929154
256.133648189879
256.0023902221886
255.9517117005892
255.9355212942217
255.9311953761747
255.9302211167503
255.9300350577809
255.9300047787424
255.9300005616867
255.9300000570937
255.9300000050332
255.9300000003859
255.930000000027
255.7078740188041
255.6811822355517
255.8351305996316
255.7933957389298
255.8440541769184
255.8765765970491
255.9189098178516
255.9651097673078
256.0138402368316
256.0648765081646
256.117413828044
256.1709652606626
256.2250402330175
256.2791873512615
256.3329754724986
256.385990565525
256.437838800195
256.4881486469583
256.5365778968057
256.5828173719993
256.6265976422259
256.6676915821142
256.7059190287313
256.7411478615504
256.7732972269582
256.8023388377867
256.8283012416859
256.8512739337119
256.871415332545
256.8889603614867
256.9042298994416
256.9176355690664
256.9296782577584
256.9409325844676
256.9520154184223
256.963535567579
256.9760318341549
256.9899102912764
257.0054006203398
257.0225487912144
257.0412579986798
257.0613718261618
257.0827775180324
257.105494462489
257.1297173923972
257.1557984462455
257.1841749336861
257.2152665047633
257.2493827434619
257.2867063008663
257.3274318496103
257.3721065274147
257.4220757599479
257.4797438195518
257.5483468779477
257.6313562538651
257.7322870582778
257.855667305013
258.0076670394209
258.1892814443167
258.373005401385
258.4700995751045
258.3486333322846
257.9435768002434
257.3497771714691
256.7654944167761
256.3394470772839
256.0976466682449
255.9876406862536
255.9467267991969
255.9341149933319
255.9308614198864
255.9301539439435
255.9300235561387
255.9300030952848
255.9300003502465
255.9300000342276
255.9300000028969
255.930000000213
255.9300000000141
255.8129051768242
255.8160105858802
255.9661065540352
255.9402855443219
255.9935936629016
256.0347726500535
256.083396378844
256.135943173007
256.1906898371955
256.2472481977453
256.3047880001953
256.3627208003572
256.4204791152155
256.4775376801761
256.5334037624575
256.5876162234601
256.6397509376801
256.6894242890721
256.7363008435901
256.7800971254318
256.8205878751125
256.8576079221485
256.8910558997911
256.9208943090125
256.9471516111138
256.9699222232213
256.9893688974711
257.0057241649485
257.0192937368867
257.0304574373425
257.0396688414427
257.0474479148544
257.0543657232297
257.0610168365665
257.0679809344403
257.0757755835586
257.0848098387693
257.0953494367811
257.1075076761564
257.1212697125678
257.136550488703
257.1532726965249
257.171442727643
257.191199304865
257.2128189137413
257.2366747332423
257.2631617428742
257.2926140257497
257.3252568195938
257.3612545254426
257.4009121426977
257.4450238144774
257.495216629451
257.5540211286977
257.6245158397581
257.7098490095437
257.8133678916731
257.9395634414319
258.0932297834983
258.26947290895
258.4284828735788
258.4707872247403
258.2753531790194
257.812261240974
257.2065479266336
256.6527444178864
256.2711484871297
256.0646825149975
255.9746803606575
255.9425124549213
255.9329695098737
255.9305991972598
255.9301030975781
255.9300151668856
255.9300019127386
255.9300002073378
255.9300000193708
255.9300000015642
255.9300000001094
255.9300000000068
255.9340565668694
255.9702605906336
256.1169596870542
256.1079159439044
256.1650756430921
256.2150890271164
256.2707273834889
256.3299588265016
256.3909063127327
256.4529785907093
256.5152915356177
256.5771473384874
256.6378926538047
256.6969280587897
256.7537059921098
256.8077327882763
256.8585764245835
256.9058711492577
256.9493250841916
256.9887230267764
257.0239306597764
257.0548939678201
257.0816397348421
257.104272373168
257.1229723100718
257.1379921582554
257.1496546031353
257.1583486069824
257.1645261109352
257.1686949931276
257.1714092550886
257.1732521490042
257.1748126857777
257.1766542964226
257.1792794624681
257.1830947771448
257.1883855233008
257.1953076485299
257.2039044191311
257.2141476639567
257.2259968045904
257.2394605135614
257.2546432893216
257.2717619216986
257.2911261408241
257.3130879020529
257.3379748814559
257.3660364488846
257.3974441995695
257.4323994577689
257.471372773542
257.515418202622
257.5663846889062
257.6268184743951
257.6995649015119
257.7874838250462
257.893826881237
258.0228076702869
258.1767689405725
258.3430790120168
258.4686321530692
258.4469709595183
258.1753352034808
257.66220999145
257.0572293558006
256.5426738016668
256.2079373404907
256.0355608733343
255.9637063406283
255.9390841449755
255.9320732467509
255.9304017921907
255.9300662801051
255.9300093277755
255.9300011224169
255.9300001157447
255.9300000102538
255.9300000007825
255.9300000000515
255.9300000000028
256.0748198647356
256.1469840233227
256.290269661495
256.2989981160251
256.3612634120669
256.4204585621958
256.4837812586721
256.5500244212158
256.6172460200309
256.6846270817076
256.7511933706429
256.8161289722799
256.8786928525772
256.938224054201
256.9941458105789
257.0459699823222
257.09330554367
257.1358621690536
257.1734549206108
257.2060029782556
257.2335284510416
257.2561501308771
257.2740777460763
257.2876029943048
257.2970919405741
257.3029756865101
257.3057424815669
257.3059280523559
257.3041059213202
257.3008739062873
257.2968381449251
257.2925919083946
257.2886909200095
257.2856261734866
257.2837988974152
257.2835024068469
257.2849174242889
257.2881247808006
257.2931368528598
257.2999427780636
257.3085580433715
257.3190654034939
257.3316357504884
257.3465217517553
257.3640255467349
257.3844488374735
257.4080433861213
257.434991277458
257.465453979305
257.4997251275378
257.5384763738938
257.5830000225849
257.6352782847
257.697767150937
257.7730431814633
257.8637428361092
257.9730256175217
258.1043418670121
258.2562016856368
258.4064330910318
258.4888273061908
258.3955258088329
258.0493706825196
257.4978690090679
256.907025836656
256.4388401717453
256.1514190471902
256.010727998214
255.9547486389702
255.9364000271368
255.9313996591684
255.9302593909568
255.9300408060087
255.9300054575716
255.9300006214704
255.9300000603452
255.9300000050052
255.9300000003554
255.9300000000216
255.9300000000011
256.2395313258421
256.3496577300403
256.4896292665662
256.5168984955426
256.5858249222827
256.6546473189244
256.7262419603301
256.7996691617043
256.8729340440178
256.9449716491047
257.0146907466207
257.0811656842505
257.1435932317781
257.2012970230451
257.2537344756684
257.3005002998868
257.3413311770226
257.3761032946305
257.4048288054601
257.4276455580912
257.4448061664771
257.4566627466278
257.4636526006704
257.4662821781445
257.4651131526845
257.4607480916501
257.453817943029
257.4449685691745
257.4348472673642
257.4240871657246
257.4132896655182
257.4030050657934
257.3937129751484
257.3858047591989
257.3795722354228
257.3752061146169
257.3728076160592
257.3724135394374
257.3740322014249
257.3776833274738
257.3834331707574
257.3914155687082
257.4018333482689
257.414938541172
257.4309963744676
257.4502444197365
257.4728659630897
257.4990068363277
257.5288667868247
257.5628764970087
257.601916159083
257.6474620433848
257.7015283965978
257.7664006200824
257.8443959447486
257.9379932101341
258.0501325241236
258.1827287567797
258.3288755727621
258.4554296292334
258.4849105802695
258.3150548998964
257.9005102837546
257.3251267455057
256.7612454403677
256.3442010123899
256.1025948347228
255.9902839589
255.9476983354785
255.9343772885435
255.9309135041256
255.9301610253758
255.9300239892558
255.9300030212217
255.9300003216319
255.9300000289337
255.9300000021987
255.9300000001411
255.9300000000076
255.9300000000002
256.4316263424714
256.581880485354
256.7191204090616
256.7659827299016
256.8434346154751
256.922427385113
257.0026144635239
257.0829450349715
257.1613476054372
257.2365237867336
257.3072806794262
257.3726390151579
257.4318142891262
257.4842185128749
257.5294629188995
257.5673528672459
257.597880270437
257.6212071513522
257.6376469971414
257.6476404544369
257.6517315917144
257.6505426069074
257.6447516280706
257.6350715992143
257.622232936779
257.6069676094473
257.5899957630644
257.5720124626322
257.5536750484814
257.5355895274232
257.5182970125705
257.5022606418801
257.4878547921324
257.4753594063782
257.4649618570412
257.4567682732948
257.4508249397221
257.4471475608001
257.4457540162279
257.4466939857843
257.4500689186269
257.4560371932303
257.4648028808323
257.476590469308
257.491612411517
257.5100428731778
257.5320175806065
257.557685117839
257.5873276525377
257.6215375107795
257.661380710366
257.7084407792721
257.7646710133871
257.8321451457382
257.9129653621931
258.0094742120343
258.1240783170467
258.256113777777
258.3916629356967
258.4859693777162
258.4539326219221
258.2064927591078
257.7340420651872
257.1507421281584
256.6247338770341
256.2608496391196
256.0618302571626
255.9740261074434
255.9423447422912
255.9329094232436
255.9305765070518
255.9300959953703
255.9300134140599
255.9300015693439
255.9300001531587
255.9300000124017
255.9300000008267
255.9300000000448
255.9300000000018
255.9299999999998
256.6573641987288
256.8498714769629
256.9851521652177
257.0526416821166
257.1403027901158
257.2296447424802
257.3179512091506
257.4038474026984
257.4851877631701
257.560515898453
257.6286310319458
257.6886385900756
257.7399380013587
257.7822116718178
257.8154095792536
257.8397221622546
257.8555487857553
257.8634588850953
257.8641534905572
257.8584259493793
257.8471275520978
257.8311365980657
257.8113339700661
257.7885829901969
257.7637145575741
257.7375150427815
257.7107169209108
257.6839900848071
257.6579340010373
257.6330698874937
257.6098340316397
257.5885732202389
257.5695437524678
257.5529163340233
257.5387878144463
257.52720002846
257.5181644804104
257.5116895012005
257.5078054256437
257.5065826534166
257.5081387112555
257.5126323953695
257.5202462034242
257.5311615069924
257.5455351024746
257.563491027071
257.5851470933159
257.6106938087632
257.6405273941125
257.6754015826679
257.716520383329
257.7654919049923
257.8241409023185
257.8943307345706
257.9779998580485
258.0772813447439
258.1935183408736
258.3222485567598
258.4412033047521
258.4945773274047
258.3948802944134
258.0733941619322
257.5570421826988
256.9815568197558
256.5013640789218
256.1898799670408
256.0289098222766
255.9615252965156
255.9384186827578
255.931882755976
255.9303520397172
255.9300548655125
255.930007091392
255.9300007540228
255.9300000650861
255.9300000044553
255.9300000002308
255.9300000000079
255.9300000000001
255.9299999999999
256.9239846080719
257.1609213020772
257.2960715361358
257.3845446159062
257.483490744889
257.5822445008515
257.6766351149794
257.7649061595303
257.8449316830528
257.9152858971759
257.9749828351897
258.0234767638777
258.0606275902317
258.0866533673955
258.102075009081
258.1076517511758
258.1043175284984
258.0931188532344
258.0751614046622
258.051564484534
258.0234265413755
257.9917992340203
257.957670467469
257.9219532586538
257.8854797082556
257.8489974060683
257.8131676026294
257.7785636276367