/*--------------------------------*- C++ -*----------------------------------*\
| =========                 |                                                 |
| \\      /  F ield         | OpenFOAM: The Open Source CFD Toolbox           |
|  \\    /   O peration     | Version:  v1912                                 |
|   \\  /    A nd           | Website:  www.openfoam.com                      |
|    \\/     M anipulation  |                                                 |
\*---------------------------------------------------------------------------*/
FoamFile
{
    version     2.0;
    format      ascii;
    class       volVectorField;
    location    "0.003";
    object      U;
}
// * * * * * * * * * * * * * * * * * * * * * * * * * * * * * * * * * * * * * //

dimensions      [0 1 -1 0 0 0 0];


internalField   nonuniform List<vector> 
16000
(
(113.5837789580212 4.188328801125132e-25 -10.90463991882307)
(116.0574307871422 -3.411271449420443e-22 -6.091289937054162)
(114.7446205900759 1.710352367136576e-25 -10.29739146162216)
(115.6246255445245 3.505885163958536e-22 -6.843175486641011)
(115.0577874202992 0 -9.414028520981486)
(115.2876755973047 -4.462617917648215e-25 -7.591283742499325)
(115.0346754571032 -2.989616567713525e-22 -8.710841257714847)
(114.9991089901445 -3.22541889362788e-22 -8.037712969378388)
(114.8385329428979 -1.011779023648179e-24 -8.339187198206416)
(114.7057267942935 3.110786043054755e-22 -8.166035985836146)
(114.5483187601377 3.032797818745831e-22 -8.193268508211707)
(114.3858741700811 3.024519418625509e-22 -8.141959476694547)
(114.2125228933238 2.959918303294999e-22 -8.11370513483547)
(114.0301410401172 -3.660183646340401e-26 -8.075458897735018)
(113.8362847500813 3.731966258077104e-26 -8.035662655486963)
(113.6308482178281 2.322600716002738e-24 -7.992003530416995)
(113.4140485869074 -2.828298675335286e-22 -7.944424658064346)
(113.1874955334112 -2.808454021709777e-22 -7.89298880925958)
(112.9533885113753 2.460161878561388e-24 -7.837613106108178)
(112.7142187265463 0 -7.778446042415858)
(112.4721794530694 0 -7.715509510301171)
(112.2286847903969 2.586633490980127e-24 -7.648741886380038)
(111.984517531631 -5.133588784337764e-22 -7.578028507254827)
(111.7396533994981 -5.025640291318542e-22 -7.503088425135785)
(111.493799831002 0 -7.423731692375825)
(111.2464485052134 -4.840445561775587e-22 -7.339636877613102)
(110.9972426798693 -4.784776775301574e-22 -7.250700526479926)
(110.745956894463 0 -7.156718009738297)
(110.492602580781 -5.614476165280685e-24 -7.057730415691549)
(110.2373528777224 -1.814051583334665e-25 -6.953701940728014)
(109.9805287832973 0 -6.844807492870845)
(109.7225210522577 -1.141753439292199e-23 -6.731168308336756)
(109.4637707045107 0 -6.613071802910077)
(109.2047189359457 1.146728513923749e-23 -6.490779431287038)
(108.945821187599 -1.11028956637118e-23 -6.364695604292991)
(108.687518838966 0 -6.235230786977841)
(108.4302682034427 -1.179282341759175e-23 -6.102938439579015)
(108.1745090317288 0 -5.968402109752129)
(107.9206726618172 -7.111100833970657e-22 -5.832345469127925)
(107.6691259278364 -7.062756844341446e-22 -5.695518868655238)
(107.4201605886297 -2.23657713690488e-23 -5.558794979594571)
(107.1739532772842 2.217947571213207e-23 -5.42307648673338)
(106.9305911334383 7.049025361281071e-22 -5.289387055195371)
(106.6900706417946 6.764193655112605e-22 -5.158830463289323)
(106.4523740164444 0 -5.032655483077239)
(106.2174555752968 -2.118863633658075e-23 -4.912217484945296)
(105.9852648867707 -2.087662748860351e-23 -4.798983415489487)
(105.7557139922768 0 -4.694501230382773)
(105.5286940246906 -4.035214914048108e-23 -4.600387210361465)
(105.3040314432867 4.084205065862072e-23 -4.518340239860302)
(105.0815031472626 0 -4.450266010329622)
(104.8609519844439 -3.795992074360036e-23 -4.398396278487937)
(104.6421838021757 -1.470976992140413e-21 -4.365431161894744)
(104.4249042546826 -1.522194545591069e-21 -4.354821379642776)
(104.2086292909373 -1.630592742085945e-21 -4.371042839737344)
(103.9923536011695 -1.694273625063181e-21 -4.420314339905739)
(103.774594871469 -3.459510428414245e-23 -4.512304529977468)
(103.552599307952 -2.218091341170224e-24 -4.664282933527668)
(103.3216288901025 -2.560129513119361e-21 -4.909078573611771)
(103.0755246711606 -2.969651151144934e-21 -5.297166667180622)
(102.8121306032118 -3.515953362274202e-21 -5.865190006718982)
(102.541467370537 -6.646899782794124e-21 -6.544805025179341)
(102.2979358385684 -3.535148837986968e-21 -7.060178216078276)
(102.1396779586128 9.141035283806367e-22 -6.994716038929808)
(102.1135680956735 -2.06784484486808e-25 -6.103231555990525)
(102.2173478549684 0 -4.571924787758472)
(102.3924061277892 -4.429027068783321e-21 -2.907024447649401)
(102.5631692880564 -3.05289276221751e-21 -1.567224800983898)
(102.6844355813349 1.675907893936283e-21 -0.719545977196248)
(102.7522372160143 -3.546097588568985e-25 -0.2830402382105521)
(102.7831464406341 1.104113615653515e-25 -0.0959697543491953)
(102.7948875518697 9.293029460491873e-23 -0.02820844885712422)
(102.798659519464 -3.643932022066974e-26 -0.007224341856507559)
(102.7996949058518 0 -0.00161941819536432)
(102.7999395196395 -1.302145846796543e-24 -0.0003190118704490825)
(102.7999895283496 -2.380935499368198e-25 -5.542414350969341e-05)
(102.7999984129394 0 -8.519126802600342e-06)
(102.7999997891484 1.559726542728203e-29 -1.161532540779107e-06)
(102.7999999754186 0 -1.406026993390538e-07)
(102.799999997314 2.176819085281795e-31 -1.371190012024411e-08)
(113.0425813185693 -3.56187563205315e-22 -12.2418246596069)
(115.755050813493 -3.678193299897316e-22 -7.045627304728369)
(114.2154734517195 -3.201693523996039e-22 -11.6086707968869)
(115.3195657103477 -3.786588126899179e-22 -7.830377510895424)
(114.6409092577947 0 -10.67277498595649)
(114.9801038292802 3.660847384477559e-22 -8.630894253875441)
(114.6662311348994 3.233312406754027e-22 -9.898348437362944)
(114.6753176523201 -2.228391122141133e-24 -9.122337637446822)
(114.4910533515393 -3.2986402527977e-22 -9.468489309896681)
(114.3689252507011 -3.346019496269173e-22 -9.264837736066328)
(114.2038000971364 1.260183208589081e-24 -9.291615245367439)
(114.0385077395778 -3.221288946774146e-22 -9.228610908309156)
(113.8592945140892 -3.196822433321909e-22 -9.190730236271078)
(113.6698192884983 -3.148537379657049e-22 -9.141115417087365)
(113.4680918107024 -3.101303217981917e-22 -9.089292058333221)
(113.2543645976174 3.08824993151727e-22 -9.032710051995252)
(113.0292139276483 3.063893741305992e-22 -8.971528432333219)
(112.7943910236413 2.880941975702457e-22 -8.905798472383072)
(112.552115050962 2.939872462316964e-22 -8.835520471592176)
(112.3047888368049 0 -8.760824274651936)
(112.0544717568142 0 -8.68170964273566)
(111.8025223047945 3.066070466696001e-24 -8.598082920812722)
(111.5496949547396 -5.399244866066714e-22 -8.509773162178947)
(111.2960638800066 -5.396028214778784e-22 -8.416487923141528)
(111.0414558323735 1.228119619845384e-23 -8.318002843622677)
(110.7855319542748 1.240258796097107e-23 -8.214021225891601)
(110.5280832060859 -6.439331043359611e-24 -8.104435179380602)
(110.2690325630219 4.939659190398462e-22 -7.989093516178582)
(110.0085095325374 4.742599896435328e-22 -7.868062676956071)
(109.7467941691785 0 -7.741381550954938)
(109.4842867539439 -4.453332859282497e-22 -7.609276172130796)
(109.221449789919 -4.452094990158107e-22 -7.471957657343236)
(108.9587714236898 2.545178759850403e-23 -7.329784627903318)
(108.6967378224245 1.297197540366394e-23 -7.183117020850358)
(108.4358277069774 3.863320503367541e-22 -7.032442137457966)
(108.1765095688769 3.872451343748098e-22 -6.878274822359682)
(107.9192529367044 -3.762754052199186e-23 -6.721262837922614)
(107.6645193657346 0 -6.562104901952884)
(107.4127527414554 1.244398773797556e-23 -6.401635724204407)
(107.164339893468 7.046088595357869e-22 -6.240730858799674)
(106.9195764304325 6.641555586424203e-22 -6.080371432217995)
(106.6786335264271 -2.305695801997282e-23 -5.921555139866411)
(106.4415585307716 2.349753249294729e-23 -5.765363253661764)
(106.2082961254349 0 -5.61293068309732)
(105.978739988983 0 -5.465511158044417)
(105.7527567924568 -2.222696123483124e-23 -5.324467417255681)
(105.5302036599484 -2.176863743422936e-23 -5.191275605172518)
(105.3109037882878 -8.372183902360567e-23 -5.06749412322068)
(105.0946391747463 -7.852133717659111e-22 -4.954749223714408)
(104.8811314369665 -6.255542080847844e-22 -4.854746131285165)
(104.6700441622838 0 -4.769338522717877)
(104.461023958849 -3.878683371134083e-23 -4.700639859332512)
(104.253658700106 7.433124030996167e-23 -4.651216779646066)
(104.0474137925345 -1.464406126596631e-21 -4.624348181768495)
(103.841527283552 -1.568705164678718e-21 -4.62436209515445)
(103.6347629059605 0 -4.657264244206861)
(103.4252171919773 1.741364241262404e-21 -4.73217088602192)
(103.2097928634997 4.012945951557775e-21 -4.864977271699833)
(102.9835762404064 -7.322697138496368e-23 -5.085656195628885)
(102.7403123671996 -5.920264125573161e-21 -5.442658834730462)
(102.4764664988053 -1.87464696933868e-25 -5.978115089206923)
(102.2027193322454 1.429066110250844e-22 -6.640092367434524)
(101.9615183844993 5.828581238797859e-23 -7.168102967661439)
(101.8246845498597 -7.961235359475711e-22 -7.136713147185025)
(101.8502528001249 -3.599867388487429e-21 -6.267690884252345)
(102.0283012413493 -4.995727849654312e-21 -4.722802378031949)
(102.2775544524676 0 -3.015063542070132)
(102.504374084106 0 -1.627839702493677)
(102.6592911604772 -1.756138303521691e-21 -0.7463161625221868)
(102.7432703670467 -8.081279773151947e-22 -0.2922643832113267)
(102.7805007007831 0 -0.09834563034132633)
(102.7942537798371 0 -0.0285916815566847)
(102.7985414685336 0 -0.007216724305154278)
(102.7996799333902 6.132514047311147e-24 -0.001588261807421683)
(102.7999390964205 2.50039640609769e-24 -0.0003059463117356948)
(102.7999899292637 4.471437994452958e-25 -5.17610259905863e-05)
(102.7999985510907 3.492613888433202e-26 -7.714389269936122e-06)
(102.7999998186472 0 -1.015417937466545e-06)
(102.7999999802911 0 -1.18150017449392e-07)
(102.7999999980777 0 -1.106694148000588e-08)
(112.4883997724515 0 -13.61118173963564)
(115.3907852856851 3.954834921508644e-22 -8.054586577909451)
(113.652157550853 6.934787741488643e-22 -12.93856250134048)
(114.9305579215603 8.172529084744139e-22 -8.866733988537314)
(114.1801772711783 2.017631748952403e-24 -11.95734085378192)
(114.5827230951025 -3.93870641406741e-22 -9.716276864765277)
(114.2407528639964 -3.439948192424186e-22 -11.11443523319189)
(114.2658298784974 -3.787053635310632e-22 -10.24867732911888)
(114.0725438685182 -2.666333128013947e-24 -10.62893347804122)
(113.9495466101172 3.559169584698221e-22 -10.39997989560107)
(113.7787726773008 3.480016744917033e-22 -10.42185029274136)
(113.6070993629666 3.462945511605491e-22 -10.3472861900058)
(113.4200353492643 3.459164983795243e-22 -10.29768724596828)
(113.221715091583 0 -10.23537270514135)
(113.0106906497884 0 -10.16983564191471)
(112.7875936067782 0 -10.09862754172143)
(112.5533462299861 6.29722759468272e-24 -10.02200785513352)
(112.3097854133678 -6.404930791001053e-24 -9.940028901654065)
(112.0590801402449 3.08045946521974e-22 -9.852744828511764)
(111.8034713791243 -5.098100039318994e-25 -9.76026682404769)
(111.544838918428 -2.949591848569856e-22 -9.662576900263655)
(111.2844571705521 0 -9.559558823309034)
(111.0230602091742 0 -9.451010156697352)
(110.7608415322752 5.372341654786255e-22 -9.336643305302664)
(110.4977855132384 5.500666227994855e-22 -9.216225486400877)
(110.2337620262817 1.40584011125847e-23 -9.089503211106654)
(109.96875226888 0 -8.956389900371033)
(109.7028588644465 1.41794839543946e-23 -8.816809682773433)
(109.4363573533422 1.420391500801777e-23 -8.670878354396157)
(109.1696472837657 0 -8.518730929038549)
(108.903220205193 -4.527689966294242e-22 -8.36066626404727)
(108.637607885875 -8.765053018310665e-22 -8.197004996101741)
(108.373348045087 -8.212707006942932e-22 -8.028197139295218)
(108.1109612042326 -8.229484039329936e-22 -7.854722129036036)
(107.8509456098423 5.54860901664643e-23 -7.677173885083573)
(107.5937781568945 7.72997508216292e-22 -7.496195464418251)
(107.3399244303186 2.942885128587066e-22 -7.312550502148817)
(107.089831978996 0 -7.127066826442227)
(106.8439198087517 0 -6.940690881114685)
(106.602539931116 0 -6.754410781251647)
(106.3659447074791 -4.974183757829479e-23 -6.569295356674064)
(106.1342506701988 -7.120331731238001e-22 -6.38641917740497)
(105.9074371532127 -5.53578012740306e-22 -6.206914289032908)
(105.6853626653911 9.356833915425776e-23 -6.031951864437028)
(105.4678122487692 0 -5.862804750564568)
(105.2545263126459 0 -5.700848925614321)
(105.0452252617039 -8.715513538025899e-23 -5.547569142176893)
(104.8395927968727 -8.650782031087407e-23 -5.404528281404095)
(104.6372694031134 -1.521365010098361e-24 -5.273351051486847)
(104.4378360774226 0 -5.155729629129572)
(104.2408174560864 -6.532060102547598e-22 -5.053482424878583)
(104.0456902416395 -6.65328768250659e-22 -4.968659460024519)
(103.8518428621419 2.262223354448964e-22 -4.903732550820992)
(103.6585228022008 0 -4.86185276125336)
(103.464718797124 -1.492189495238829e-21 -4.847217675771157)
(103.2689721985737 -1.731686109329029e-21 -4.865709919578246)
(103.0691324361779 -1.406045855177978e-22 -4.926161394866586)
(102.8619271143629 -2.097066149479272e-21 -5.043508430847746)
(102.6422817343049 -4.632442382736998e-21 -5.245679495795078)
(102.4032048444307 -6.005410178612693e-21 -5.579651209635185)
(102.1398020125842 -3.397218342883581e-21 -6.091086094549166)
(101.8638293544008 -1.377790191012735e-22 -6.739257775738848)
(101.6256601434064 0 -7.273730842127665)
(101.5119072833484 7.668687699287955e-22 -7.261504351337194)
(101.5901176968677 3.586798443620499e-21 -6.400733363844196)
(101.841631271969 0 -4.837466439126474)
(102.1643996452915 0 -3.09219626064919)
(102.4470365427956 -3.181646469631207e-21 -1.667791764710457)
(102.6350700084506 -7.762084079539134e-23 -0.7619391234458448)
(102.7347531291905 7.958339331441549e-22 -0.29655835864501)
(102.7780185981405 -2.902907104089251e-22 -0.0989149417428081)
(102.7936609009599 -1.875788751687276e-22 -0.02842567776699211)
(102.7984283160956 -2.587604489309641e-23 -0.007071497192482224)
(102.799663789984 0 -0.001529205334180645)
(102.7999377692844 -1.197912439326586e-24 -0.0002885195627591213)
(102.7999900125188 -2.085231940802689e-25 -4.765191829613744e-05)
(102.7999986084236 7.592071098560475e-28 -6.909730618690293e-06)
(102.7999998316829 -4.879785849064344e-29 -8.818956663741587e-07)
(102.7999999823594 0 -9.918458665007092e-08)
(102.7999999983767 1.143313074474541e-29 -8.978281964993647e-09)
(111.9405297663849 2.209457651804283e-24 -15.00831796290933)
(114.9775813537849 1.024007855640094e-24 -9.117604307013663)
(113.0512194705084 0 -14.28756947938352)
(114.4797482859099 0 -9.955869618750757)
(113.6614187119196 2.630997520909717e-24 -13.261324202721)
(114.1152283906364 4.309669320449345e-22 -10.85192228605809)
(113.7473324500749 3.668951781047224e-22 -12.35181337657213)
(113.7817097182612 0 -11.41844944547538)
(113.5792278562542 0 -11.81563290140882)
(113.4517023070395 0 -11.56972830591805)
(113.2735476813163 0 -11.58072505527552)
(113.0932664475872 0 -11.49490894675993)
(112.8966804509139 1.246132281014472e-23 -11.43137712869099)
(112.6881513208549 0 -11.35480632064418)
(112.4668646384128 0 -11.27372637053396)
(112.2337899398527 0 -11.18604534332007)
(111.9901276203294 1.321305200624263e-23 -11.09203833442539)
(111.7377272909056 3.313758726937945e-22 -10.99175733552909)
(111.4786374979082 3.099422641492316e-22 -10.88527438661703)
(111.2148872710278 0 -10.77266546772976)
(110.9481581186398 -3.091555689667882e-22 -10.6538890908737)
(110.679637431186 -3.007825577429982e-22 -10.52881182302839)
(110.4100627047788 0 -10.39722467282387)
(110.1397713034919 0 -10.25886998073994)
(109.8689373664676 -5.543421219908118e-22 -10.1135443774426)
(109.5976671337077 -5.364906888420909e-22 -9.961068658887552)
(109.3261562505223 5.50996874629898e-22 -9.801414456684718)
(109.0547040741476 5.330380108603792e-22 -9.634609495446934)
(108.7837408920217 2.991698106773091e-23 -9.460850738036681)
(108.5137878955772 0 -9.280393890724246)
(108.2454230811396 0 -9.093638028258839)
(107.9792383529447 -5.91663803637296e-23 -8.90103516438338)
(107.7158080411833 0 -8.703151508749231)
(107.4556717161982 4.085919268785842e-22 -8.500607157875784)
(107.1993305899631 4.514555509600372e-22 -8.294125690464876)
(106.9472517020794 5.664871019634564e-23 -8.084497614995584)
(106.699876775819 -1.110435566478326e-24 -7.87262088300584)
(106.4576154993083 0 -7.659464521773335)
(106.2208334266765 0 -7.446093224049392)
(105.9898117967331 0 -7.233606438629446)
(105.7647173626884 -6.016281583349831e-22 -7.023154117678701)
(105.545564195876 -6.353309557485108e-22 -6.815878585872837)
(105.3322171438109 1.000137800399701e-22 -6.61295421630437)
(105.1244057217614 9.751025067521645e-23 -6.415583121094944)
(104.9217746376404 6.104411028077142e-22 -6.225053278689943)
(104.7239138484489 6.960106898968994e-22 -6.042748341167998)
(104.5303899416659 -9.001245401983107e-23 -5.870152101879929)
(104.3407331359733 0 -5.708820325814821)
(104.154434867446 -5.267505571044065e-22 -5.560362062823285)
(103.9709295140467 -1.236554330988465e-21 -5.426441868153534)
(103.7895983097452 -4.695830367206039e-22 -5.308834541487104)
(103.6097658061613 6.435084157906831e-22 -5.20952729657952)
(103.4306629131105 8.163713356325698e-22 -5.130907328720528)
(103.2513626572436 0 -5.076019572049998)
(103.0706569098544 0 -5.048947642239392)
(102.8868767849882 1.40748873462477e-21 -5.055449381351181)
(102.6976703141086 1.551013358611853e-21 -5.104104251015788)
(102.4995907053714 -1.468782086763352e-22 -5.20909313111203)
(102.2872254018129 0 -5.396716657621654)
(102.0526704375678 -4.550186271093054e-22 -5.712272890947679)
(101.7899576669832 0 -6.202584600284428)
(101.5124120245037 -1.494904572336207e-23 -6.833026144127333)
(101.2790719489319 2.186829379085769e-22 -7.359337272497153)
(101.1915885393821 0 -7.344913964053474)
(101.3261601825342 -1.613360304006369e-23 -6.475817141877068)
(101.6548684445869 0 -4.891939253286133)
(102.0535420444505 1.975829108873951e-22 -3.120806960703693)
(102.39235697806 4.589900896803819e-22 -1.676607199600534)
(102.6127162098887 7.947211453350125e-23 -0.7613501838043919)
(102.7271974327696 -9.021899855271347e-22 -0.2939025810865796)
(102.7759202172205 -2.878186615609913e-22 -0.0970090913856799)
(102.7931893896701 5.10836315338966e-24 -0.02752432519137556)
(102.7983457964378 -2.595560663095962e-24 -0.006744235394582831)
(102.7996537506341 5.935728788031931e-25 -0.001432908895036489)
(102.7999373619841 0 -0.0002649310765774435)
(102.7999901844034 9.783743420301261e-27 -4.276418272622014e-05)
(102.7999986655504 7.369285486407829e-28 -6.043999901777418e-06)
(102.7999998425077 -4.61213248985524e-29 -7.498522695657098e-07)
(102.7999999838767 0 -8.177416287890495e-08)
(102.7999999985654 0 -7.1775870204845e-09)
(111.4054012937958 4.948873186807358e-24 -16.43311546623361)
(114.5143919641617 5.072661402122491e-24 -10.23113571905644)
(112.416060181258 0 -15.65174908914656)
(113.9663564668495 4.753746528810924e-22 -11.09655203731731)
(113.0846921719043 7.844976650037909e-22 -14.57857960442713)
(113.5754271521439 4.623330546109146e-22 -12.03748604838185)
(113.1841651932034 -3.021148248110469e-24 -13.60418021653554)
(113.219883334756 -4.362380866467654e-22 -12.62966948708639)
(113.0078727758255 3.590875009068288e-25 -13.02364556199769)
(112.8716383623937 4.048872620529946e-22 -12.76983721974865)
(112.6841065558176 0 -12.76376787567806)
(112.492858089944 0 -12.66652687805516)
(112.2850121125536 4.071092972930202e-22 -12.58681422605309)
(112.0648897540541 -4.624970149451534e-25 -12.49416175839981)
(111.8323201302337 -1.338395201111791e-23 -12.3955252463495)
(111.5885399316257 1.366567904240375e-23 -12.28929264355516)
(111.3349461975628 -3.409490737554612e-22 -12.17569422786929)
(111.0733468591559 -3.33550475856214e-22 -12.05477195678059)
(110.8056401832539 -3.547603184052473e-22 -11.9265854075134)
(110.5336421920792 1.523951892096439e-23 -11.79116755439884)
(110.2588626571286 3.091401309417841e-23 -11.64845711505385)
(109.9824288885621 0 -11.498318071175)
(109.7051205005529 3.162968326086989e-23 -11.34056675800249)
(109.4274401030665 0 -11.17500663133628)
(109.1497727033557 3.210836703233319e-23 -11.00150705681404)
(108.8724700002696 0 -10.81999824259153)
(108.5959485766844 3.328745173720447e-23 -10.63055302590456)
(108.3207039205571 -4.433446855991719e-22 -10.43333489738263)
(108.0473155589178 -5.195369293311855e-22 -10.22866012967053)
(107.776416364871 -4.063919608018908e-22 -10.0169332642247)
(107.5086558780427 -9.662180489121132e-22 -9.798686555636792)
(107.2446685494858 -4.338879436501887e-22 -9.574528791090122)
(106.9850438420866 -4.162936801468079e-22 -9.345171230939021)
(106.7303177469615 -3.980794439677257e-22 -9.111397403637518)
(106.4809683784961 -6.066617626359742e-23 -8.874084284696139)
(106.2374254109051 6.081695822460318e-23 -8.634186893573505)
(106.0000741102784 4.140327664511527e-22 -8.392751844067407)
(105.7692511333264 3.402486894981591e-22 -8.1508949273023)
(105.5452270514959 -3.298647659634097e-22 -7.909799076959023)
(105.32816968011 -3.182998497589369e-22 -7.6706675280951)
(105.1181137486221 1.082479693865998e-22 -7.434720129620699)
(104.9149288213227 -1.035227649201302e-22 -7.203153559739301)
(104.7183257671885 -5.940423223016146e-22 -6.977171505029184)
(104.527875310593 1.969845613446572e-24 -6.7579951096354)
(104.3430586452564 7.674235077574856e-22 -6.546914879197155)
(104.1633014655503 9.390487319096182e-23 -6.345307075483062)
(103.9880063027006 0 -6.154635332888185)
(103.8165453126829 -1.737776056949807e-22 -5.976426777171355)
(103.6482590671991 0 -5.812251898001072)
(103.4824395720078 0 -5.663726395341684)
(103.3183320466322 7.673246470551509e-22 -5.532562983494757)
(103.1551257008211 7.748621087556154e-22 -5.420673607161346)
(102.9919138055896 -3.029683634098726e-22 -5.330360503800628)
(102.8276185528222 0 -5.264579311758204)
(102.6608622331472 -2.91188448813662e-22 -5.227324757074453)
(102.4897877671174 0 -5.224250223025956)
(102.3118491130669 1.666314275652962e-21 -5.263733689422181)
(102.1233815100474 -3.085148192297435e-25 -5.359409758475775)
(101.9185763738687 -2.225375936246579e-21 -5.536325498437039)
(101.6887232881543 -1.398887463800614e-23 -5.837999773311994)
(101.4271956925023 0 -6.310309770440267)
(101.1495550330322 3.052012238834673e-22 -6.920065683849933)
(100.9241279496289 2.170744501630335e-22 -7.424946579517723)
(100.8677378981172 0 -7.387609491506312)
(101.0641538381506 3.84867039640318e-21 -6.493136362243957)
(101.4742194989241 5.89310572801957e-21 -4.885655239388266)
(101.9498821042043 2.454669448101204e-22 -3.100271796227836)
(102.343333807447 -3.069708304407038e-21 -1.654073752068859)
(102.5936990297627 -1.650732684435673e-21 -0.7446543913589521)
(102.7211912101201 7.227696119279236e-22 -0.2844762318772591)
(102.7744023429471 2.651572515122356e-22 -0.09275214130849396)
(102.7928958195229 9.089896078565725e-23 -0.02594550050794655)
(102.7983082420906 2.096650348153919e-23 -0.006255189992250492)
(102.7996531027808 6.093582158296596e-25 -0.001304902636403454)
(102.799938569785 0 -0.0002363725607072952)
(102.7999905824113 9.571062693815364e-27 -3.729699005637066e-05)
(102.7999987477305 2.425068032377218e-26 -5.141154332748713e-06)
(102.7999998553922 6.416162399545425e-27 -6.206986542489296e-07)
(102.7999999854946 3.34805043059696e-28 -6.573373449005831e-08)
(102.7999999987438 -2.784011128222247e-29 -5.60357450960912e-09)
(110.870606731563 -9.9320598465257e-22 -17.89091391543502)
(113.9917490971385 -9.794876185410287e-22 -11.39845800595794)
(111.7412483377077 -4.367250043651792e-22 -17.03145743314325)
(113.3841581539067 -5.169474414748325e-22 -12.29229660446486)
(112.4459166136568 -4.137311704885799e-22 -15.90363532441787)
(112.9580330420719 0 -13.27409416631861)
(112.5470248850674 -6.125825503720055e-24 -14.86570330450733)
(112.575464358421 0 -13.87963445097075)
(112.353674849769 0 -14.2484977387106)
(112.2044676328724 -7.118779414455074e-24 -13.99513479809953)
(112.0054529115896 4.114085421187452e-22 -13.96625253095412)
(111.8009076718996 -4.596033810219989e-25 -13.85660975322423)
(111.5800302070339 -3.805690181973434e-22 -13.75845106784456)
(111.3468899212802 -4.024601257893696e-22 -13.64755846309893)
(111.1019088771865 -8.025019826271508e-22 -13.52908702402803)
(110.8465209105485 1.689222074265085e-23 -13.40189418114731)
(110.5822483340535 3.58097159972913e-22 -13.26613642593053)
(110.3108364921004 1.692292727286037e-23 -13.121830367179)
(110.0340426943633 3.289532513121888e-23 -12.96900849289687)
(109.7535123408571 5.081305520738029e-23 -12.80766805740207)
(109.4706414352805 6.906939504437351e-23 -12.63774484142766)
(109.1865460220719 2.874885675888746e-22 -12.45913026350816)
(108.9020919797695 3.456243604432218e-22 -12.27170409288043)
(108.6179646746286 0 -12.07537182343885)
(108.3347689128635 3.609486419908394e-23 -11.8701212955136)
(108.0530944645456 5.527071153236479e-22 -11.65603343810837)
(107.7735680948478 5.284908169253309e-22 -11.43332808375451)
(107.4968634272958 5.433565830369234e-22 -11.20234183081428)
(107.2236890153183 4.124778485378059e-22 -10.9635521160524)
(106.9547653384067 5.343167179362943e-22 -10.71754522373435)
(106.6907870465742 -7.136898860365505e-23 -10.46502329565195)
(106.4324018539334 -7.741760301476622e-22 -10.20678055137313)
(106.1801829425548 -4.014141612322572e-22 -9.943703870645434)
(105.9346290420973 0 -9.676762891970053)
(105.696159275608 4.297247808121424e-22 -9.407009512116428)
(105.4651271461286 1.237531657199264e-22 -9.135575046336383)
(105.2418194929288 -2.126469283708624e-22 -8.863661777559948)
(105.0264548111349 0 -8.592528128649001)
(104.8191610681468 1.159535135842422e-22 -8.323465618747074)
(104.6199451539774 0 -8.057763494323787)
(104.4286641423905 5.82722491247609e-22 -7.796691955693913)
(104.2450037034833 1.02154401892731e-22 -7.541480446488043)
(104.0684887392093 -5.549029422674965e-22 -7.293342005607886)
(103.8985091498585 -3.496287710572745e-22 -7.053496860014831)
(103.7343696198223 -8.901922614024998e-22 -6.823217700982637)
(103.575326548959 -8.966869729800811e-22 -6.603850441210707)
(103.4206184177434 -5.425074467242732e-22 -6.396812718123503)
(103.2694630636792 -7.269576505579856e-22 -6.203575033303269)
(103.1210565887134 -1.279813646252246e-21 -6.025641260125806)
(102.9745582595206 -1.130729609961324e-21 -5.864552950610842)
(102.829089199567 -3.190442824087763e-22 -5.721940293575591)
(102.6837167221665 7.560571521282949e-22 -5.599627613526784)
(102.5374076761902 -6.149301190492502e-22 -5.499830529851292)
(102.3889454137389 2.972939771992584e-22 -5.425425157397346)
(102.2367986717716 -3.000610258282719e-22 -5.380335992996652)
(102.0789434602474 0 -5.370135195570927)
(101.9126566310657 -2.86904972448233e-22 -5.403050309340376)
(101.734057339993 -1.568581455522088e-21 -5.492331731585345)
(101.5369624232836 -2.195408606312525e-21 -5.662076699514707)
(101.3119888986949 3.173897652439441e-22 -5.95395996116409)
(101.0522560057353 -3.218085164974324e-21 -6.411239307174562)
(100.7763154738688 -6.331919155148127e-21 -6.997824465590056)
(100.5630012115529 -3.440156675424391e-21 -7.468894258477277)
(100.5444910750993 1.102666930757154e-21 -7.388666622516387)
(100.810048807598 -6.3362791026467e-22 -6.452267070797558)
(101.3057337821191 5.586772613064063e-22 -4.818792829546703)
(101.8579498680396 5.053422388739967e-21 -3.031431952478598)
(102.3025685214389 -3.494509326325098e-22 -1.601326490371238)
(102.5791936037661 -2.010548502965619e-21 -0.712818607651232)
(102.7171587998762 -7.869213382745356e-22 -0.2688791561971621)
(102.7735888488513 -5.987475589513641e-22 -0.08643156108965816)
(102.7928096965217 -6.607288840375521e-23 -0.02379896576117147)
(102.7983214573733 4.943098177740243e-24 -0.005638357822644681)
(102.7996628134485 -1.085339408450044e-24 -0.001153809997763454)
(102.7999415390394 0 -0.0002046400606585783)
(102.7999912291821 1.120637850229849e-25 -3.155540185338608e-05)
(102.7999988588715 4.53510059469679e-26 -4.242546572882491e-06)
(102.7999998710303 5.693250764457612e-28 -4.986376977135573e-07)
(102.7999999873256 -2.658563606559667e-28 -5.131717610089077e-08)
(102.7999999989303 1.357225441046886e-30 -4.252048207401889e-09)
(110.31602803733 0 -19.37709307465873)
(113.4020754893041 3.046292393234001e-24 -12.60741946044418)
(111.0193385349334 4.655350446103942e-22 -18.42036684292957)
(112.7277283384444 5.519200197746115e-22 -13.53628498535576)
(111.7400969258861 5.108894920830903e-25 -17.22982735937284)
(112.2578721203728 5.319723620498092e-22 -14.55775173859188)
(111.8308313619889 4.44973137137084e-22 -16.13110974034936)
(111.843124168476 5.019385816480716e-22 -15.16345425704883)
(111.6109317856279 -7.520201718435662e-24 -15.48668237052046)
(111.4445250865824 1.499055516486372e-23 -15.24011014380635)
(111.2316643174236 8.900516082203156e-22 -15.1839127005058)
(111.0114577240914 4.452540471375232e-22 -15.05995031951352)
(110.7756411069016 1.68711065472374e-23 -14.94096462120222)
(110.5279128458808 4.252779599435577e-22 -14.80920668131688)
(110.2691993600468 4.139089253530598e-22 -14.66815312890376)
(110.0010765907807 0 -14.517052144497)
(109.7251494232199 -4.099932534866584e-22 -14.35598580036496)
(109.4431124714483 -3.789866198943792e-22 -14.18494640331633)
(109.1566269554702 3.783417392857269e-23 -14.00394630083972)
(108.8672389495154 3.830496568199292e-23 -13.81297227581339)
(108.5763056957937 1.490759617206225e-24 -13.61199148309632)
(108.2849901816911 -3.900137408936872e-23 -13.40096399999749)
(107.9942848655884 3.531813721785969e-22 -13.17988086520026)
(107.7050683205385 3.39272245874252e-22 -12.94879587016696)
(107.4181602124144 -7.623474035520479e-23 -12.70786664465516)
(107.134366336451 -7.619436561048815e-23 -12.45736982360083)
(106.8544960668093 0 -12.19772246628833)
(106.579367070362 -4.988297654673416e-22 -11.92947567519126)